# vtk DataFile Version 3.0
TPZGeoMesh VTK Visualization
ASCII

DATASET UNSTRUCTURED_GRID
POINTS 20 float
0 0 0 
0.25 0 0 
0.125 0 0 
0.25 0 0 
0.25 0.25 0 
0.25 0.125 0 
0.25 0.25 0 
0 0.25 0 
0.125 0.25 0 
0 0.25 0 
0 0 0 
0 0.125 0 
0 0 0 
0.25 0 0 
0.25 0.25 0 
0 0.25 0 
0.125 0 0 
0.25 0.125 0 
0.125 0.25 0 
0 0.125 0 

CELLS 5 25
3 0 1 2
3 3 4 5
3 6 7 8
3 9 10 11
8 12 13 14 15 16 17 18 19

CELL_TYPES 5
21
21
21
21
23

CELL_DATA 5
FIELD FieldData 1
material 1 5 int
3
3
3
2
1
FIELD FieldData 1
elindex 1 5 int
0
1
2
3
4
POINT_DATA 20
VECTORS Solution float
-1.35e-297 -5.92945e-298 0 
-1.83204e-05 -4.2983e-05 0 
-1.37115e-05 -2.0941e-05 0 

-1.83204e-05 -4.2983e-05 0 
1.83204e-05 -4.2983e-05 0 
-3.69635e-21 -4.29488e-05 0 

1.83204e-05 -4.2983e-05 0 
1.35e-297 -5.92945e-298 0 
1.37115e-05 -2.0941e-05 0 

1.35e-297 -5.92945e-298 0 
-1.35e-297 -5.92945e-298 0 
1.82501e-313 -3.3739e-298 0 

-1.35e-297 -5.92945e-298 0 
-1.83204e-05 -4.2983e-05 0 
1.83204e-05 -4.2983e-05 0 
1.35e-297 -5.92945e-298 0 
-1.37115e-05 -2.0941e-05 0 
-3.69635e-21 -4.29488e-05 0 
1.37115e-05 -2.0941e-05 0 
1.82501e-313 -3.3739e-298 0 

VECTORS GradSolution float
-0.000146102 0 0 
-4.60902e-07 0 0 
-7.32815e-05 0 0 
0 0 0 
0 0 0 
0 0 0 
4.60902e-07 0 0 
0.000146102 0 0 
7.32815e-05 0 0 
0 0 0 
0 0 0 
0 0 0 
-0.000146102 9.48713e-297 0 
-4.60902e-07 5.466e-07 0 
4.60902e-07 -5.466e-07 0 
0.000146102 -9.48713e-297 0 
-7.32815e-05 4.12707e-05 0 
-4.15961e-20 -1.35525e-19 0 
7.32815e-05 -4.12707e-05 0 
1.20253e-20 0 0 
