# vtk DataFile Version 3.0
TPZGeoMesh VTK Visualization
ASCII

DATASET UNSTRUCTURED_GRID
POINTS 774 float
0.333333 0.25 0 
0.307323 0.214307 0 
0.372094 0.191363 0 
0.320328 0.232153 0 
0.339709 0.202835 0 
0.352714 0.220681 0 
0.166667 0.25 0 
0.127906 0.191363 0 
0.195055 0.212508 0 
0.147286 0.220681 0 
0.16148 0.201935 0 
0.180861 0.231254 0 
0.166667 0 0 
0.195517 0.0365852 0 
0.139852 0.0521483 0 
0.181092 0.0182926 0 
0.167684 0.0443668 0 
0.153259 0.0260742 0 
0.333333 0 0 
0.35819 0.0473207 0 
0.30462 0.036434 0 
0.345762 0.0236603 0 
0.331405 0.0418774 0 
0.318977 0.018217 0 
0.111111 0 0 
0.166667 0 0 
0.139852 0.0521483 0 
0.138889 0 0 
0.153259 0.0260742 0 
0.125481 0.0260742 0 
0.333333 0 0 
0.388889 0 0 
0.35819 0.0473207 0 
0.361111 0 0 
0.373539 0.0236603 0 
0.345762 0.0236603 0 
0.388889 0.25 0 
0.333333 0.25 0 
0.372094 0.191363 0 
0.361111 0.25 0 
0.352714 0.220681 0 
0.380492 0.220681 0 
0.166667 0.25 0 
0.111111 0.25 0 
0.127906 0.191363 0 
0.138889 0.25 0 
0.119508 0.220681 0 
0.147286 0.220681 0 
0.222222 0 0 
0.277778 0 0 
0.250039 0.0422306 0 
0.25 0 0 
0.263909 0.0211153 0 
0.236131 0.0211153 0 
0.277778 0.25 0 
0.222222 0.25 0 
0.254933 0.191246 0 
0.25 0.25 0 
0.238577 0.220623 0 
0.266355 0.220623 0 
0.313894 0.17311 0 
0.372094 0.191363 0 
0.307323 0.214307 0 
0.342994 0.182236 0 
0.339709 0.202835 0 
0.310609 0.193709 0 
0.184314 0.17219 0 
0.195055 0.212508 0 
0.127906 0.191363 0 
0.189685 0.192349 0 
0.16148 0.201935 0 
0.15611 0.181776 0 
0.186957 0.0771869 0 
0.139852 0.0521483 0 
0.195517 0.0365852 0 
0.163404 0.0646676 0 
0.167684 0.0443668 0 
0.191237 0.056886 0 
0.317828 0.0785297 0 
0.30462 0.036434 0 
0.35819 0.0473207 0 
0.311224 0.0574819 0 
0.331405 0.0418774 0 
0.338009 0.0629252 0 
0.127906 0.191363 0 
0.0889587 0.137815 0 
0.148924 0.156468 0 
0.108432 0.164589 0 
0.118941 0.147142 0 
0.138415 0.173915 0 
0.372094 0.191363 0 
0.353917 0.152443 0 
0.400673 0.134965 0 
0.363006 0.171903 0 
0.377295 0.143704 0 
0.386384 0.163164 0 
0.125319 0.123852 0 
0.148924 0.156468 0 
0.0889587 0.137815 0 
0.137122 0.14016 0 
0.118941 0.147142 0 
0.107139 0.130834 0 
0.0700182 0.175253 0 
0.0889587 0.137815 0 
0.127906 0.191363 0 
0.0794885 0.156534 0 
0.108432 0.164589 0 
0.0989619 0.183308 0 
0.429982 0.175253 0 
0.372094 0.191363 0 
0.400673 0.134965 0 
0.401038 0.183308 0 
0.386384 0.163164 0 
0.415327 0.155109 0 
0.368083 0.120854 0 
0.400673 0.134965 0 
0.353917 0.152443 0 
0.384378 0.127909 0 
0.377295 0.143704 0 
0.361 0.136648 0 
0.313894 0.17311 0 
0.254933 0.191246 0 
0.288753 0.140362 0 
0.284413 0.182178 0 
0.271843 0.165804 0 
0.301324 0.156736 0 
0.0662182 0.0845792 0 
0.0889587 0.137815 0 
0.0461581 0.125874 0 
0.0775884 0.111197 0 
0.0675584 0.131845 0 
0.0561881 0.105227 0 
0.433782 0.0845792 0 
0.453842 0.125874 0 
0.400673 0.134965 0 
0.443812 0.105227 0 
0.427257 0.130419 0 
0.417227 0.109772 0 
0.313894 0.17311 0 
0.307323 0.214307 0 
0.254933 0.191246 0 
0.310609 0.193709 0 
0.281128 0.202776 0 
0.284413 0.182178 0 
0.25 0.126127 0 
0.288753 0.140362 0 
0.254933 0.191246 0 
0.269377 0.133245 0 
0.271843 0.165804 0 
0.252466 0.158686 0 
0.226229 0.0836202 0 
0.186957 0.0771869 0 
0.195517 0.0365852 0 
0.206593 0.0804035 0 
0.191237 0.056886 0 
0.210873 0.0601027 0 
0.277408 0.0919719 0 
0.30462 0.036434 0 
0.317828 0.0785297 0 
0.291014 0.064203 0 
0.311224 0.0574819 0 
0.297618 0.0852508 0 
0.250039 0.0422306 0 
0.226229 0.0836202 0 
0.195517 0.0365852 0 
0.238134 0.0629254 0 
0.210873 0.0601027 0 
0.222778 0.0394079 0 
0.250039 0.0422306 0 
0.30462 0.036434 0 
0.277408 0.0919719 0 
0.277329 0.0393323 0 
0.291014 0.064203 0 
0.263724 0.0671013 0 
0.277778 0 0 
0.30462 0.036434 0 
0.250039 0.0422306 0 
0.291199 0.018217 0 
0.277329 0.0393323 0 
0.263909 0.0211153 0 
0.222222 0 0 
0.250039 0.0422306 0 
0.195517 0.0365852 0 
0.236131 0.0211153 0 
0.222778 0.0394079 0 
0.208869 0.0182926 0 
0.222222 0.25 0 
0.195055 0.212508 0 
0.254933 0.191246 0 
0.208639 0.231254 0 
0.224994 0.201877 0 
0.238577 0.220623 0 
0.277778 0.25 0 
0.254933 0.191246 0 
0.307323 0.214307 0 
0.266355 0.220623 0 
0.281128 0.202776 0 
0.292551 0.232153 0 
0.0662182 0.0845792 0 
0.108677 0.0911812 0 
0.0889587 0.137815 0 
0.0874478 0.0878802 0 
0.098818 0.114498 0 
0.0775884 0.111197 0 
0.433782 0.0845792 0 
0.400673 0.134965 0 
0.389785 0.0881143 0 
0.417227 0.109772 0 
0.395229 0.11154 0 
0.411784 0.0863468 0 
0.25 0.126127 0 
0.254933 0.191246 0 
0.221655 0.161308 0 
0.252466 0.158686 0 
0.238294 0.176277 0 
0.235827 0.143717 0 
0.254933 0.191246 0 
0.195055 0.212508 0 
0.221655 0.161308 0 
0.224994 0.201877 0 
0.208355 0.186908 0 
0.238294 0.176277 0 
0.5 0.1 0 
0.5 0.15 0 
0.453842 0.125874 0 
0.5 0.125 0 
0.476921 0.137937 0 
0.476921 0.112937 0 
0 0.15 0 
0 0.1 0 
0.0461581 0.125874 0 
0 0.125 0 
0.0230791 0.112937 0 
0.0230791 0.137937 0 
0.184314 0.17219 0 
0.221655 0.161308 0 
0.195055 0.212508 0 
0.202985 0.166749 0 
0.208355 0.186908 0 
0.189685 0.192349 0 
0.5 0 0 
0.5 0.05 0 
0.458664 0.0411432 0 
0.5 0.025 0 
0.479332 0.0455716 0 
0.479332 0.0205716 0 
0.5 0.25 0 
0.459708 0.210479 0 
0.5 0.2 0 
0.479854 0.23024 0 
0.479854 0.20524 0 
0.5 0.225 0 
0 0.25 0 
0 0.2 0 
0.0402924 0.210479 0 
0 0.225 0 
0.0201462 0.20524 0 
0.0201462 0.23024 0 
0 0 0 
0.0413364 0.0411432 0 
0 0.05 0 
0.0206682 0.0205716 0 
0.0206682 0.0455716 0 
0 0.025 0 
0.186957 0.0771869 0 
0.15376 0.106133 0 
0.139852 0.0521483 0 
0.170359 0.0916599 0 
0.146806 0.0791406 0 
0.163404 0.0646676 0 
0.5 0 0 
0.458664 0.0411432 0 
0.444444 0 0 
0.479332 0.0205716 0 
0.451554 0.0205716 0 
0.472222 0 0 
0.5 0.25 0 
0.444444 0.25 0 
0.459708 0.210479 0 
0.472222 0.25 0 
0.452076 0.23024 0 
0.479854 0.23024 0 
0 0.25 0 
0.0402924 0.210479 0 
0.0555556 0.25 0 
0.0201462 0.23024 0 
0.047924 0.23024 0 
0.0277778 0.25 0 
0 0 0 
0.0555556 0 0 
0.0413364 0.0411432 0 
0.0277778 0 0 
0.048446 0.0205716 0 
0.0206682 0.0205716 0 
0.139852 0.0521483 0 
0.15376 0.106133 0 
0.108677 0.0911812 0 
0.146806 0.0791406 0 
0.131219 0.098657 0 
0.124264 0.0716647 0 
0.429982 0.175253 0 
0.414833 0.215276 0 
0.372094 0.191363 0 
0.422407 0.195265 0 
0.393464 0.203319 0 
0.401038 0.183308 0 
0.0700182 0.175253 0 
0.127906 0.191363 0 
0.0851671 0.215276 0 
0.0989619 0.183308 0 
0.106536 0.203319 0 
0.0775927 0.195265 0 
0.111111 0 0 
0.139852 0.0521483 0 
0.0865297 0.0446937 0 
0.125481 0.0260742 0 
0.113191 0.048421 0 
0.0988204 0.0223469 0 
0.388889 0 0 
0.413144 0.0438891 0 
0.35819 0.0473207 0 
0.401016 0.0219446 0 
0.385667 0.0456049 0 
0.373539 0.0236603 0 
0.388889 0.25 0 
0.372094 0.191363 0 
0.414833 0.215276 0 
0.380492 0.220681 0 
0.393464 0.203319 0 
0.401861 0.232638 0 
0.111111 0.25 0 
0.0851671 0.215276 0 
0.127906 0.191363 0 
0.0981391 0.232638 0 
0.106536 0.203319 0 
0.119508 0.220681 0 
0.317828 0.0785297 0 
0.35819 0.0473207 0 
0.352576 0.0918526 0 
0.338009 0.0629252 0 
0.355383 0.0695866 0 
0.335202 0.0851912 0 
0.317828 0.0785297 0 
0.323883 0.122267 0 
0.277408 0.0919719 0 
0.320855 0.100398 0 
0.300646 0.107119 0 
0.297618 0.0852508 0 
0.323883 0.122267 0 
0.288753 0.140362 0 
0.277408 0.0919719 0 
0.306318 0.131315 0 
0.283081 0.116167 0 
0.300646 0.107119 0 
0.313894 0.17311 0 
0.353917 0.152443 0 
0.372094 0.191363 0 
0.333905 0.162777 0 
0.363006 0.171903 0 
0.342994 0.182236 0 
0.184314 0.17219 0 
0.127906 0.191363 0 
0.148924 0.156468 0 
0.15611 0.181776 0 
0.138415 0.173915 0 
0.166619 0.164329 0 
0 0.15 0 
0.0461581 0.125874 0 
0.0310137 0.172345 0 
0.0230791 0.137937 0 
0.0385859 0.149109 0 
0.0155068 0.161172 0 
0 0.1 0 
0.0310137 0.0776551 0 
0.0461581 0.125874 0 
0.0155068 0.0888275 0 
0.0385859 0.101765 0 
0.0230791 0.112937 0 
0.5 0.1 0 
0.453842 0.125874 0 
0.468986 0.0776551 0 
0.476921 0.112937 0 
0.461414 0.101765 0 
0.484493 0.0888275 0 
0.5 0.15 0 
0.468986 0.172345 0 
0.453842 0.125874 0 
0.484493 0.161172 0 
0.461414 0.149109 0 
0.476921 0.137937 0 
0.184314 0.17219 0 
0.148924 0.156468 0 
0.197455 0.12762 0 
0.166619 0.164329 0 
0.17319 0.142044 0 
0.190885 0.149905 0 
0.125319 0.123852 0 
0.108677 0.0911812 0 
0.15376 0.106133 0 
0.116998 0.107517 0 
0.131219 0.098657 0 
0.13954 0.114993 0 
0.139852 0.0521483 0 
0.108677 0.0911812 0 
0.0865297 0.0446937 0 
0.124264 0.0716647 0 
0.0976035 0.0679375 0 
0.113191 0.048421 0 
0.35819 0.0473207 0 
0.413144 0.0438891 0 
0.389785 0.0881143 0 
0.385667 0.0456049 0 
0.401465 0.0660017 0 
0.373988 0.0677175 0 
0.197455 0.12762 0 
0.148924 0.156468 0 
0.15376 0.106133 0 
0.17319 0.142044 0 
0.151342 0.1313 0 
0.175608 0.116876 0 
0.0662182 0.0845792 0 
0.0865297 0.0446937 0 
0.108677 0.0911812 0 
0.0763739 0.0646365 0 
0.0976035 0.0679375 0 
0.0874478 0.0878802 0 
0.433782 0.0845792 0 
0.389785 0.0881143 0 
0.413144 0.0438891 0 
0.411784 0.0863468 0 
0.401465 0.0660017 0 
0.423463 0.0642342 0 
0.0700182 0.175253 0 
0.0310137 0.172345 0 
0.0461581 0.125874 0 
0.050516 0.173799 0 
0.0385859 0.149109 0 
0.0580882 0.150564 0 
0.433782 0.0845792 0 
0.468986 0.0776551 0 
0.453842 0.125874 0 
0.451384 0.0811171 0 
0.461414 0.101765 0 
0.443812 0.105227 0 
0.429982 0.175253 0 
0.453842 0.125874 0 
0.468986 0.172345 0 
0.441912 0.150564 0 
0.461414 0.149109 0 
0.449484 0.173799 0 
0.0662182 0.0845792 0 
0.0461581 0.125874 0 
0.0310137 0.0776551 0 
0.0561881 0.105227 0 
0.0385859 0.101765 0 
0.0486159 0.0811171 0 
0.444444 0.25 0 
0.388889 0.25 0 
0.414833 0.215276 0 
0.416667 0.25 0 
0.401861 0.232638 0 
0.429639 0.232638 0 
0.0555556 0 0 
0.111111 0 0 
0.0865297 0.0446937 0 
0.0833333 0 0 
[...]
CELL_DATA 134
FIELD FieldData 1
material 1 134 int
0
0
0
0
0
0
0
0
0
0
0
0
0
0
0
0
0
0
0
0
0
0
0
0
0
0
0
0
0
0
0
0
0
0
0
0
0
0
0
0
0
0
0
0
0
0
0
0
0
0
0
0
0
0
0
0
0
0
0
0
0
0
0
0
0
0
0
0
0
0
0
0
0
0
0
0
0
0
0
0
0
0
0
0
0
0
0
0
0
0
0
0
0
0
0
0
0
0
0
0
0
0
0
0
0
0
0
0
0
0
0
0
0
0
0
0
0
0
0
0
0
0
0
0
1
1
1
1
1
2
2
2
2
2
FIELD FieldData 1
elindex 1 134 int
0
1
2
3
4
5
6
7
8
9
10
11
12
13
14
15
16
17
18
19
20
21
22
23
24
25
26
27
28
29
30
31
32
33
34
35
36
37
38
39
40
41
42
43
44
45
46
47
48
49
50
51
52
53
54
55
56
57
58
59
60
61
62
63
64
65
66
67
68
69
70
71
72
73
74
75
76
77
78
79
80
81
82
83
84
85
86
87
88
89
90
91
92
93
94
95
96
97
98
99
100
101
102
103
104
105
106
107
108
109
110
111
112
113
114
115
116
117
118
119
120
121
122
123
124
125
126
127
128
129
130
131
132
133
POINT_DATA 774
VECTORS Solution float
2.18116e-05 -4.17916e-05 0 
1.45534e-05 -3.6463e-05 0 
1.17054e-05 -4.90821e-05 0 
1.81825e-05 -3.91273e-05 0 
1.31294e-05 -4.27725e-05 0 
1.67585e-05 -4.54369e-05 0 

1.35713e-05 -1.42412e-05 0 
5.29001e-06 -8.61412e-06 0 
1.04351e-05 -1.75247e-05 0 
9.43066e-06 -1.14277e-05 0 
7.86254e-06 -1.30694e-05 0 
1.20032e-05 -1.5883e-05 0 

-1.36079e-05 -1.42849e-05 0 
-1.06003e-05 -1.76527e-05 0 
-6.48154e-06 -1.01431e-05 0 
-1.21041e-05 -1.59688e-05 0 
-8.54091e-06 -1.38979e-05 0 
-1.00447e-05 -1.2214e-05 0 

-2.18074e-05 -4.17923e-05 0 
-1.35429e-05 -4.63359e-05 0 
-1.42836e-05 -3.59583e-05 0 
-1.76751e-05 -4.40641e-05 0 
-1.39132e-05 -4.11471e-05 0 
-1.80455e-05 -3.88753e-05 0 

-9.88614e-06 -7.93644e-06 0 
-1.36079e-05 -1.42849e-05 0 
-6.48154e-06 -1.01431e-05 0 
-1.1747e-05 -1.11106e-05 0 
-1.00447e-05 -1.2214e-05 0 
-8.18384e-06 -9.03975e-06 0 

-2.18074e-05 -4.17923e-05 0 
-2.32991e-05 -5.28727e-05 0 
-1.35429e-05 -4.63359e-05 0 
-2.25532e-05 -4.73325e-05 0 
-1.8421e-05 -4.96043e-05 0 
-1.76751e-05 -4.40641e-05 0 

2.32196e-05 -5.28756e-05 0 
2.18116e-05 -4.17916e-05 0 
1.17054e-05 -4.90821e-05 0 
2.25156e-05 -4.73336e-05 0 
1.67585e-05 -4.54369e-05 0 
1.74625e-05 -5.09788e-05 0 

1.35713e-05 -1.42412e-05 0 
9.94215e-06 -7.97013e-06 0 
5.29001e-06 -8.61412e-06 0 
1.17567e-05 -1.11057e-05 0 
7.61608e-06 -8.29212e-06 0 
9.43066e-06 -1.14277e-05 0 

-1.70159e-05 -2.21955e-05 0 
-1.96692e-05 -3.14154e-05 0 
-1.17943e-05 -2.61625e-05 0 
-1.83425e-05 -2.68054e-05 0 
-1.57318e-05 -2.87889e-05 0 
-1.44051e-05 -2.4179e-05 0 

1.95734e-05 -3.14169e-05 0 
1.70385e-05 -2.21924e-05 0 
9.43694e-06 -2.67858e-05 0 
1.8306e-05 -2.68046e-05 0 
1.32377e-05 -2.44891e-05 0 
1.45052e-05 -2.91013e-05 0 

7.71868e-06 -3.74861e-05 0 
1.17054e-05 -4.90821e-05 0 
1.45534e-05 -3.6463e-05 0 
9.71203e-06 -4.32841e-05 0 
1.31294e-05 -4.27725e-05 0 
1.1136e-05 -3.69745e-05 0 

5.22433e-06 -1.56789e-05 0 
1.04351e-05 -1.75247e-05 0 
5.29001e-06 -8.61412e-06 0 
7.8297e-06 -1.66018e-05 0 
7.86254e-06 -1.30694e-05 0 
5.25717e-06 -1.21465e-05 0 

-5.34669e-06 -1.60651e-05 0 
-6.48154e-06 -1.01431e-05 0 
-1.06003e-05 -1.76527e-05 0 
-5.91412e-06 -1.31041e-05 0 
-8.54091e-06 -1.38979e-05 0 
-7.97348e-06 -1.68589e-05 0 

-7.56897e-06 -3.82956e-05 0 
-1.42836e-05 -3.59583e-05 0 
-1.35429e-05 -4.63359e-05 0 
-1.09263e-05 -3.71269e-05 0 
-1.39132e-05 -4.11471e-05 0 
-1.05559e-05 -4.23158e-05 0 

5.29001e-06 -8.61412e-06 0 
6.35151e-07 -4.36757e-06 0 
2.89554e-06 -1.08978e-05 0 
2.96258e-06 -6.49084e-06 0 
1.76535e-06 -7.63271e-06 0 
4.09277e-06 -9.75598e-06 0 

1.17054e-05 -4.90821e-05 0 
4.66296e-06 -4.53053e-05 0 
1.7726e-06 -5.49866e-05 0 
8.18416e-06 -4.71937e-05 0 
3.21778e-06 -5.0146e-05 0 
6.73898e-06 -5.20343e-05 0 

-1.33625e-07 -8.16486e-06 0 
2.89554e-06 -1.08978e-05 0 
6.35151e-07 -4.36757e-06 0 
1.38096e-06 -9.53135e-06 0 
1.76535e-06 -7.63271e-06 0 
2.50763e-07 -6.26622e-06 0 

2.198e-06 -3.04741e-06 0 
6.35151e-07 -4.36757e-06 0 
5.29001e-06 -8.61412e-06 0 
1.41658e-06 -3.70749e-06 0 
2.96258e-06 -6.49084e-06 0 
3.744e-06 -5.83077e-06 0 

9.1962e-06 -6.1273e-05 0 
1.17054e-05 -4.90821e-05 0 
1.7726e-06 -5.49866e-05 0 
1.04508e-05 -5.51775e-05 0 
6.73898e-06 -5.20343e-05 0 
5.4844e-06 -5.81298e-05 0 

-7.2368e-07 -4.82086e-05 0 
1.7726e-06 -5.49866e-05 0 
4.66296e-06 -4.53053e-05 0 
5.24459e-07 -5.15976e-05 0 
3.21778e-06 -5.0146e-05 0 
1.96964e-06 -4.6757e-05 0 

7.71868e-06 -3.74861e-05 0 
9.43694e-06 -2.67858e-05 0 
2.3584e-06 -3.26949e-05 0 
8.57781e-06 -3.2136e-05 0 
5.89767e-06 -2.97404e-05 0 
5.03854e-06 -3.50905e-05 0 

-1.66982e-06 -2.71933e-06 0 
6.35151e-07 -4.36757e-06 0 
8.6957e-09 -1.32177e-06 0 
-5.17335e-07 -3.54345e-06 0 
3.21923e-07 -2.84467e-06 0 
-8.30562e-07 -2.02055e-06 0 

-7.38901e-06 -6.20972e-05 0 
1.40292e-07 -6.6396e-05 0 
1.7726e-06 -5.49866e-05 0 
-3.62436e-06 -6.42466e-05 0 
9.56445e-07 -6.06913e-05 0 
-2.8082e-06 -5.85419e-05 0 

7.71868e-06 -3.74861e-05 0 
1.45534e-05 -3.6463e-05 0 
9.43694e-06 -2.67858e-05 0 
1.1136e-05 -3.69745e-05 0 
1.19952e-05 -3.16244e-05 0 
8.57781e-06 -3.2136e-05 0 

9.91134e-08 -2.57837e-05 0 
2.3584e-06 -3.26949e-05 0 
9.43694e-06 -2.67858e-05 0 
1.22876e-06 -2.92393e-05 0 
5.89767e-06 -2.97404e-05 0 
4.76803e-06 -2.62848e-05 0 

-5.3523e-06 -2.19304e-05 0 
-5.34669e-06 -1.60651e-05 0 
-1.06003e-05 -1.76527e-05 0 
-5.3495e-06 -1.89978e-05 0 
-7.97348e-06 -1.68589e-05 0 
-7.97629e-06 -1.97915e-05 0 

-4.91213e-06 -3.05951e-05 0 
-1.42836e-05 -3.59583e-05 0 
-7.56897e-06 -3.82956e-05 0 
-9.59784e-06 -3.32767e-05 0 
-1.09263e-05 -3.71269e-05 0 
-6.24055e-06 -3.44454e-05 0 

-1.17943e-05 -2.61625e-05 0 
-5.3523e-06 -2.19304e-05 0 
-1.06003e-05 -1.76527e-05 0 
-8.57332e-06 -2.40464e-05 0 
-7.97629e-06 -1.97915e-05 0 
-1.11973e-05 -2.19076e-05 0 

-1.17943e-05 -2.61625e-05 0 
-1.42836e-05 -3.59583e-05 0 
-4.91213e-06 -3.05951e-05 0 
-1.30389e-05 -3.10604e-05 0 
-9.59784e-06 -3.32767e-05 0 
-8.35323e-06 -2.83788e-05 0 

-1.96692e-05 -3.14154e-05 0 
-1.42836e-05 -3.59583e-05 0 
-1.17943e-05 -2.61625e-05 0 
-1.69764e-05 -3.36868e-05 0 
-1.30389e-05 -3.10604e-05 0 
-1.57318e-05 -2.87889e-05 0 

-1.70159e-05 -2.21955e-05 0 
-1.17943e-05 -2.61625e-05 0 
-1.06003e-05 -1.76527e-05 0 
-1.44051e-05 -2.4179e-05 0 
-1.11973e-05 -2.19076e-05 0 
-1.38081e-05 -1.99241e-05 0 

1.70385e-05 -2.21924e-05 0 
1.04351e-05 -1.75247e-05 0 
9.43694e-06 -2.67858e-05 0 
1.37368e-05 -1.98585e-05 0 
9.936e-06 -2.21553e-05 0 
1.32377e-05 -2.44891e-05 0 

1.95734e-05 -3.14169e-05 0 
9.43694e-06 -2.67858e-05 0 
1.45534e-05 -3.6463e-05 0 
1.45052e-05 -2.91013e-05 0 
1.19952e-05 -3.16244e-05 0 
1.70634e-05 -3.39399e-05 0 

-1.66982e-06 -2.71933e-06 0 
-2.24286e-06 -6.38722e-06 0 
6.35151e-07 -4.36757e-06 0 
-1.95634e-06 -4.55328e-06 0 
-8.03855e-07 -5.37739e-06 0 
-5.17335e-07 -3.54345e-06 0 

-7.38901e-06 -6.20972e-05 0 
1.7726e-06 -5.49866e-05 0 
-6.56298e-06 -5.27291e-05 0 
-2.8082e-06 -5.85419e-05 0 
-2.39519e-06 -5.38578e-05 0 
-6.97599e-06 -5.74132e-05 0 

9.91134e-08 -2.57837e-05 0 
9.43694e-06 -2.67858e-05 0 
4.66473e-06 -2.11949e-05 0 
4.76803e-06 -2.62848e-05 0 
7.05084e-06 -2.39904e-05 0 
2.38192e-06 -2.34893e-05 0 

9.43694e-06 -2.67858e-05 0 
1.04351e-05 -1.75247e-05 0 
4.66473e-06 -2.11949e-05 0 
9.936e-06 -2.21553e-05 0 
7.5499e-06 -1.93598e-05 0 
7.05084e-06 -2.39904e-05 0 

-4.65658e-06 -7.62181e-05 0 
4.62096e-06 -7.62236e-05 0 
1.40292e-07 -6.6396e-05 0 
-1.78147e-08 -7.62208e-05 0 
2.38062e-06 -7.13098e-05 0 
-2.25815e-06 -7.1307e-05 0 

0 0 0 
0 0 0 
8.6957e-09 -1.32177e-06 0 
0 0 0 
4.34785e-09 -6.60885e-07 0 
4.34785e-09 -6.60885e-07 0 

5.22433e-06 -1.56789e-05 0 
4.66473e-06 -2.11949e-05 0 
1.04351e-05 -1.75247e-05 0 
4.94453e-06 -1.84369e-05 0 
7.5499e-06 -1.93598e-05 0 
7.8297e-06 -1.66018e-05 0 

-2.46773e-05 -7.71312e-05 0 
-1.4185e-05 -7.66549e-05 0 
-1.5804e-05 -6.75834e-05 0 
-1.94312e-05 -7.68931e-05 0 
-1.49945e-05 -7.21192e-05 0 
-2.02406e-05 -7.23573e-05 0 

2.47249e-05 -7.71538e-05 0 
1.61582e-05 -6.7811e-05 0 
1.41908e-05 -7.66689e-05 0 
2.04415e-05 -7.24824e-05 0 
1.51745e-05 -7.224e-05 0 
1.94579e-05 -7.69114e-05 0 

7.58658e-308 -1.88046e-308 0 
0 0 0 
2.28281e-06 -1.47645e-06 0 
3.79329e-308 -9.40232e-309 0 
1.14141e-06 -7.38223e-07 0 
1.14141e-06 -7.38223e-07 0 

-7.75688e-308 -1.85445e-308 0 
-2.30448e-06 -1.52837e-06 0 
0 0 0 
-1.15224e-06 -7.64184e-07 0 
-1.15224e-06 -7.64184e-07 0 
-3.87844e-308 -9.27225e-309 0 

-5.34669e-06 -1.60651e-05 0 
-1.7736e-06 -1.14989e-05 0 
-6.48154e-06 -1.01431e-05 0 
-3.56015e-06 -1.3782e-05 0 
-4.12757e-06 -1.0821e-05 0 
-5.91412e-06 -1.31041e-05 0 

-2.46773e-05 -7.71312e-05 0 
-1.5804e-05 -6.75834e-05 0 
-2.42846e-05 -6.45739e-05 0 
-2.02406e-05 -7.23573e-05 0 
-2.00443e-05 -6.60787e-05 0 
-2.44809e-05 -7.08526e-05 0 

2.47249e-05 -7.71538e-05 0 
2.43165e-05 -6.45778e-05 0 
1.61582e-05 -6.7811e-05 0 
2.45207e-05 -7.08658e-05 0 
2.02373e-05 -6.61944e-05 0 
2.04415e-05 -7.24824e-05 0 

7.58658e-308 -1.88046e-308 0 
2.28281e-06 -1.47645e-06 0 
5.3286e-06 -3.31289e-06 0 
1.14141e-06 -7.38223e-07 0 
3.80571e-06 -2.39467e-06 0 
2.6643e-06 -1.65644e-06 0 

-7.75688e-308 -1.85445e-308 0 
-5.40144e-06 -3.33674e-06 0 
-2.30448e-06 -1.52837e-06 0 
-2.70072e-06 -1.66837e-06 0 
-3.85296e-06 -2.43255e-06 0 
-1.15224e-06 -7.64184e-07 0 

-6.48154e-06 -1.01431e-05 0 
-1.7736e-06 -1.14989e-05 0 
-2.24286e-06 -6.38722e-06 0 
-4.12757e-06 -1.0821e-05 0 
-2.00823e-06 -8.94308e-06 0 
-4.3622e-06 -8.26514e-06 0 

9.1962e-06 -6.1273e-05 0 
1.68007e-05 -5.8139e-05 0 
1.17054e-05 -4.90821e-05 0 
1.29984e-05 -5.9706e-05 0 
1.4253e-05 -5.36106e-05 0 
1.04508e-05 -5.51775e-05 0 

2.198e-06 -3.04741e-06 0 
5.29001e-06 -8.61412e-06 0 
5.20513e-06 -4.83853e-06 0 
3.744e-06 -5.83077e-06 0 
5.24757e-06 -6.72632e-06 0 
3.70156e-06 -3.94297e-06 0 

-9.88614e-06 -7.93644e-06 0 
-6.48154e-06 -1.01431e-05 0 
-4.6248e-06 -4.77631e-06 0 
-8.18384e-06 -9.03975e-06 0 
-5.55317e-06 -7.45969e-06 0 
-7.25547e-06 -6.35638e-06 0 

-2.32991e-05 -5.28727e-05 0 
-1.49434e-05 -5.77488e-05 0 
-1.35429e-05 -4.63359e-05 0 
-1.91212e-05 -5.53107e-05 0 
-1.42431e-05 -5.20423e-05 0 
-1.8421e-05 -4.96043e-05 0 

2.32196e-05 -5.28756e-05 0 
1.17054e-05 -4.90821e-05 0 
1.68007e-05 -5.8139e-05 0 
1.74625e-05 -5.09788e-05 0 
1.4253e-05 -5.36106e-05 0 
2.00101e-05 -5.55073e-05 0 

9.94215e-06 -7.97013e-06 0 
5.20513e-06 -4.83853e-06 0 
5.29001e-06 -8.61412e-06 0 
7.57364e-06 -6.40433e-06 0 
5.24757e-06 -6.72632e-06 0 
7.61608e-06 -8.29212e-06 0 

-7.56897e-06 -3.82956e-05 0 
-1.35429e-05 -4.63359e-05 0 
-5.64826e-06 -4.50991e-05 0 
-1.05559e-05 -4.23158e-05 0 
-9.59556e-06 -4.57175e-05 0 
-6.60862e-06 -4.16974e-05 0 

-7.56897e-06 -3.82956e-05 0 
-4.35683e-07 -3.93241e-05 0 
-4.91213e-06 -3.05951e-05 0 
-4.00233e-06 -3.88099e-05 0 
-2.67391e-06 -3.49596e-05 0 
-6.24055e-06 -3.44454e-05 0 

-4.35683e-07 -3.93241e-05 0 
2.3584e-06 -3.26949e-05 0 
-4.91213e-06 -3.05951e-05 0 
9.61358e-07 -3.60095e-05 0 
-1.27686e-06 -3.1645e-05 0 
-2.67391e-06 -3.49596e-05 0 

7.71868e-06 -3.74861e-05 0 
4.66296e-06 -4.53053e-05 0 
1.17054e-05 -4.90821e-05 0 
6.19082e-06 -4.13957e-05 0 
8.18416e-06 -4.71937e-05 0 
9.71203e-06 -4.32841e-05 0 

5.22433e-06 -1.56789e-05 0 
5.29001e-06 -8.61412e-06 0 
2.89554e-06 -1.08978e-05 0 
5.25717e-06 -1.21465e-05 0 
4.09277e-06 -9.75598e-06 0 
4.05993e-06 -1.32884e-05 0 

0 0 0 
8.6957e-09 -1.32177e-06 0 
9.17346e-07 -8.51189e-07 0 
4.34785e-09 -6.60885e-07 0 
4.63021e-07 -1.08648e-06 0 
4.58673e-07 -4.25594e-07 0 

0 0 0 
-8.83838e-07 -8.53811e-07 0 
8.6957e-09 -1.32177e-06 0 
-4.41919e-07 -4.26906e-07 0 
-4.37571e-07 -1.08779e-06 0 
4.34785e-09 -6.60885e-07 0 

-4.65658e-06 -7.62181e-05 0 
1.40292e-07 -6.6396e-05 0 
-8.77623e-06 -6.97228e-05 0 
-2.25815e-06 -7.1307e-05 0 
-4.31797e-06 -6.80594e-05 0 
-6.71641e-06 -7.29704e-05 0 

4.62096e-06 -7.62236e-05 0 
8.75371e-06 -6.97165e-05 0 
1.40292e-07 -6.6396e-05 0 
6.68733e-06 -7.29701e-05 0 
4.447e-06 -6.80563e-05 0 
2.38062e-06 -7.13098e-05 0 

5.22433e-06 -1.56789e-05 0 
2.89554e-06 -1.08978e-05 0 
3.1166e-07 -1.73363e-05 0 
4.05993e-06 -1.32884e-05 0 
1.6036e-06 -1.41171e-05 0 
2.76799e-06 -1.65076e-05 0 

-1.33625e-07 -8.16486e-06 0 
-2.24286e-06 -6.38722e-06 0 
-1.7736e-06 -1.14989e-05 0 
-1.18824e-06 -7.27604e-06 0 
-2.00823e-06 -8.94308e-06 0 
-9.53613e-07 -9.8319e-06 0 

-6.48154e-06 -1.01431e-05 0 
-2.24286e-06 -6.38722e-06 0 
-4.6248e-06 -4.77631e-06 0 
-4.3622e-06 -8.26514e-06 0 
-3.43383e-06 -5.58177e-06 0 
-5.55317e-06 -7.45969e-06 0 

-1.35429e-05 -4.63359e-05 0 
-1.49434e-05 -5.77488e-05 0 
-6.56298e-06 -5.27291e-05 0 
-1.42431e-05 -5.20423e-05 0 
-1.07532e-05 -5.52389e-05 0 
-1.00529e-05 -4.95325e-05 0 

3.1166e-07 -1.73363e-05 0 
2.89554e-06 -1.08978e-05 0 
-1.7736e-06 -1.14989e-05 0 
1.6036e-06 -1.41171e-05 0 
5.60969e-07 -1.11984e-05 0 
-7.30971e-07 -1.44176e-05 0 

-1.66982e-06 -2.71933e-06 0 
-4.6248e-06 -4.77631e-06 0 
-2.24286e-06 -6.38722e-06 0 
-3.14731e-06 -3.74782e-06 0 
-3.43383e-06 -5.58177e-06 0 
-1.95634e-06 -4.55328e-06 0 

-7.38901e-06 -6.20972e-05 0 
-6.56298e-06 -5.27291e-05 0 
-1.49434e-05 -5.77488e-05 0 
-6.97599e-06 -5.74132e-05 0 
-1.07532e-05 -5.52389e-05 0 
-1.11662e-05 -5.9923e-05 0 

2.198e-06 -3.04741e-06 0 
9.17346e-07 -8.51189e-07 0 
8.6957e-09 -1.32177e-06 0 
1.55767e-06 -1.9493e-06 0 
4.63021e-07 -1.08648e-06 0 
1.10335e-06 -2.18459e-06 0 

-7.38901e-06 -6.20972e-05 0 
-8.77623e-06 -6.97228e-05 0 
1.40292e-07 -6.6396e-05 0 
-8.08262e-06 -6.591e-05 0 
-4.31797e-06 -6.80594e-05 0 
-3.62436e-06 -6.42466e-05 0 

9.1962e-06 -6.1273e-05 0 
1.40292e-07 -6.6396e-05 0 
8.75371e-06 -6.97165e-05 0 
4.66824e-06 -6.38345e-05 0 
4.447e-06 -6.80563e-05 0 
8.97495e-06 -6.54948e-05 0 

-1.66982e-06 -2.71933e-06 0 
8.6957e-09 -1.32177e-06 0 
-8.83838e-07 -8.53811e-07 0 
-8.30562e-07 -2.02055e-06 0 
-4.37571e-07 -1.08779e-06 0 
-1.27683e-06 -1.78657e-06 0 

2.43165e-05 -6.45778e-05 0 
2.32196e-05 -5.28756e-05 0 
1.68007e-05 -5.8139e-05 0 
2.3768e-05 -5.87267e-05 0 
2.00101e-05 -5.55073e-05 0 
2.05586e-05 -6.13584e-05 0 

-5.40144e-06 -3.33674e-06 0 
-9.88614e-06 -7.93644e-06 0 
-4.6248e-06 -4.77631e-06 0 
-7.64379e-06 -5.63659e-06 0 
-7.25547e-06 -6.35638e-06 0 
-5.01312e-06 -4.05653e-06 0 

9.94215e-06 -7.97013e-06 0 
5.3286e-06 -3.31289e-06 0 
5.20513e-06 -4.83853e-06 0 
7.63538e-06 -5.64151e-06 0 
5.26687e-06 -4.07571e-06 0 
7.57364e-06 -6.40433e-06 0 

-2.32991e-05 -5.28727e-05 0 
-2.42846e-05 -6.45739e-05 0 
-1.49434e-05 -5.77488e-05 0 
-2.37918e-05 -5.87233e-05 0 
-1.9614e-05 -6.11614e-05 0 
-1.91212e-05 -5.53107e-05 0 

-1.36079e-05 -1.42849e-05 0 
-1.70159e-05 -2.21955e-05 0 
-1.06003e-05 -1.76527e-05 0 
-1.53119e-05 -1.82402e-05 0 
-1.38081e-05 -1.99241e-05 0 
-1.21041e-05 -1.59688e-05 0 

-1.96692e-05 -3.14154e-05 0 
-2.18074e-05 -4.17923e-05 0 
-1.42836e-05 -3.59583e-05 0 
-2.07383e-05 -3.66039e-05 0 
-1.80455e-05 -3.88753e-05 0 
-1.69764e-05 -3.36868e-05 0 

2.18116e-05 -4.17916e-05 0 
1.95734e-05 -3.14169e-05 0 
1.45534e-05 -3.6463e-05 0 
2.06925e-05 -3.66042e-05 0 
1.70634e-05 -3.39399e-05 0 
1.81825e-05 -3.91273e-05 0 

1.70385e-05 -2.21924e-05 0 
1.35713e-05 -1.42412e-05 0 
1.04351e-05 -1.75247e-05 0 
1.53049e-05 -1.82168e-05 0 
1.20032e-05 -1.5883e-05 0 
1.37368e-05 -1.98585e-05 0 

2.198e-06 -3.04741e-06 0 
8.6957e-09 -1.32177e-06 0 
6.35151e-07 -4.36757e-06 0 
1.10335e-06 -2.18459e-06 0 
3.21923e-07 -2.84467e-06 0 
1.41658e-06 -3.70749e-06 0 

9.1962e-06 -6.1273e-05 0 
1.7726e-06 -5.49866e-05 0 
1.40292e-07 -6.6396e-05 0 
5.4844e-06 -5.81298e-05 0 
9.56445e-07 -6.06913e-05 0 
4.66824e-06 -6.38345e-05 0 

0 0 0 
0 0 0 
9.17346e-07 -8.51189e-07 0 
0 0 0 
4.58673e-07 -4.25594e-07 0 
4.58673e-07 -4.25594e-07 0 

-1.4185e-05 -7.66549e-05 0 
-4.65658e-06 -7.62181e-05 0 
-8.77623e-06 -6.97228e-05 0 
-9.42081e-06 -7.64365e-05 0 
-6.71641e-06 -7.29704e-05 0 
-1.14806e-05 -7.31889e-05 0 

0 0 0 
0 0 0 
-8.83838e-07 -8.53811e-07 0 
0 0 0 
-4.41919e-07 -4.26906e-07 0 
-4.41919e-07 -4.26906e-07 0 

4.62096e-06 -7.62236e-05 0 
1.41908e-05 -7.66689e-05 0 
8.75371e-06 -6.97165e-05 0 
9.40589e-06 -7.64463e-05 0 
1.14723e-05 -7.31927e-05 0 
6.68733e-06 -7.29701e-05 0 

-7.2368e-07 -4.82086e-05 0 
-6.56298e-06 -5.27291e-05 0 
1.7726e-06 -5.49866e-05 0 
-3.64333e-06 -5.04689e-05 0 
-2.39519e-06 -5.38578e-05 0 
5.24459e-07 -5.15976e-05 0 

-1.33625e-07 -8.16486e-06 0 
6.35151e-07 -4.36757e-06 0 
-2.24286e-06 -6.38722e-06 0 
2.50763e-07 -6.26622e-06 0 
-8.03855e-07 -5.37739e-06 0 
-1.18824e-06 -7.27604e-06 0 

5.3286e-06 -3.31289e-06 0 
2.28281e-06 -1.47645e-06 0 
5.20513e-06 -4.83853e-06 0 
3.80571e-06 -2.39467e-06 0 
3.74397e-06 -3.15749e-06 0 
5.26687e-06 -4.07571e-06 0 

-2.42846e-05 -6.45739e-05 0 
-1.5804e-05 -6.75834e-05 0 
-1.49434e-05 -5.77488e-05 0 
-2.00443e-05 -6.60787e-05 0 
-1.53737e-05 -6.26661e-05 0 
-1.9614e-05 -6.11614e-05 0 

2.43165e-05 -6.45778e-05 0 
1.68007e-05 -5.8139e-05 0 
1.61582e-05 -6.7811e-05 0 
2.05586e-05 -6.13584e-05 0 
1.64794e-05 -6.2975e-05 0 
2.02373e-05 -6.61944e-05 0 

-5.40144e-06 -3.33674e-06 0 
-4.6248e-06 -4.77631e-06 0 
-2.30448e-06 -1.52837e-06 0 
-5.01312e-06 -4.05653e-06 0 
-3.46464e-06 -3.15234e-06 0 
-3.85296e-06 -2.43255e-06 0 

-5.34669e-06 -1.60651e-05 0 
-5.3523e-06 -2.19304e-05 0 
3.1166e-07 -1.73363e-05 0 
-5.3495e-06 -1.89978e-05 0 
-2.52032e-06 -1.96333e-05 0 
-2.51752e-06 -1.67007e-05 0 

-5.34669e-06 -1.60651e-05 0 
3.1166e-07 -1.73363e-05 0 
-1.7736e-06 -1.14989e-05 0 
-2.51752e-06 -1.67007e-05 0 
-7.30971e-07 -1.44176e-05 0 
-3.56015e-06 -1.3782e-05 0 

-7.56897e-06 -3.82956e-05 0 
-5.64826e-06 -4.50991e-05 0 
-4.35683e-07 -3.93241e-05 0 
-6.60862e-06 -4.16974e-05 0 
-3.04197e-06 -4.22116e-05 0 
-4.00233e-06 -3.88099e-05 0 

9.91134e-08 -2.57837e-05 0 
3.1166e-07 -1.73363e-05 0 
-5.3523e-06 -2.19304e-05 0 
2.05387e-07 -2.156e-05 0 
-2.52032e-06 -1.96333e-05 0 
-2.6266e-06 -2.3857e-05 0 

5.22433e-06 -1.56789e-05 0 
3.1166e-07 -1.73363e-05 0 
4.66473e-06 -2.11949e-05 0 
2.76799e-06 -1.65076e-05 0 
2.48819e-06 -1.92656e-05 0 
4.94453e-06 -1.84369e-05 0 

9.91134e-08 -2.57837e-05 0 
4.66473e-06 -2.11949e-05 0 
3.1166e-07 -1.73363e-05 0 
2.38192e-06 -2.34893e-05 0 
2.48819e-06 -1.92656e-05 0 
2.05387e-07 -2.156e-05 0 

7.71868e-06 -3.74861e-05 0 
2.3584e-06 -3.26949e-05 0 
-4.35683e-07 -3.93241e-05 0 
5.03854e-06 -3.50905e-05 0 
9.61358e-07 -3.60095e-05 0 
3.6415e-06 -3.84051e-05 0 

9.91134e-08 -2.57837e-05 0 
-4.91213e-06 -3.05951e-05 0 
2.3584e-06 -3.26949e-05 0 
-2.40651e-06 -2.81894e-05 0 
-1.27686e-06 -3.1645e-05 0 
1.22876e-06 -2.92393e-05 0 

7.71868e-06 -3.74861e-05 0 
-4.35683e-07 -3.93241e-05 0 
4.66296e-06 -4.53053e-05 0 
3.6415e-06 -3.84051e-05 0 
2.11364e-06 -4.23147e-05 0 
6.19082e-06 -4.13957e-05 0 

2.198e-06 -3.04741e-06 0 
5.20513e-06 -4.83853e-06 0 
2.28281e-06 -1.47645e-06 0 
3.70156e-06 -3.94297e-06 0 
3.74397e-06 -3.15749e-06 0 
2.24041e-06 -2.26193e-06 0 

-7.38901e-06 -6.20972e-05 0 
-1.49434e-05 -5.77488e-05 0 
-1.5804e-05 -6.75834e-05 0 
-1.11662e-05 -5.9923e-05 0 
-1.53737e-05 -6.26661e-05 0 
-1.15965e-05 -6.48403e-05 0 

-1.66982e-06 -2.71933e-06 0 
-2.30448e-06 -1.52837e-06 0 
-4.6248e-06 -4.77631e-06 0 
-1.98715e-06 -2.12385e-06 0 
-3.46464e-06 -3.15234e-06 0 
-3.14731e-06 -3.74782e-06 0 
