# vtk DataFile Version 3.0
TPZGeoMesh VTK Visualization
ASCII

DATASET UNSTRUCTURED_GRID
POINTS 774 float
0.333333 0.25 0 
0.307323 0.214307 0 
0.372094 0.191363 0 
0.320328 0.232153 0 
0.339709 0.202835 0 
0.352714 0.220681 0 
0.166667 0.25 0 
0.127906 0.191363 0 
0.195055 0.212508 0 
0.147286 0.220681 0 
0.16148 0.201935 0 
0.180861 0.231254 0 
0.166667 0 0 
0.195517 0.0365852 0 
0.139852 0.0521483 0 
0.181092 0.0182926 0 
0.167684 0.0443668 0 
0.153259 0.0260742 0 
0.333333 0 0 
0.35819 0.0473207 0 
0.30462 0.036434 0 
0.345762 0.0236603 0 
0.331405 0.0418774 0 
0.318977 0.018217 0 
0.111111 0 0 
0.166667 0 0 
0.139852 0.0521483 0 
0.138889 0 0 
0.153259 0.0260742 0 
0.125481 0.0260742 0 
0.333333 0 0 
0.388889 0 0 
0.35819 0.0473207 0 
0.361111 0 0 
0.373539 0.0236603 0 
0.345762 0.0236603 0 
0.388889 0.25 0 
0.333333 0.25 0 
0.372094 0.191363 0 
0.361111 0.25 0 
0.352714 0.220681 0 
0.380492 0.220681 0 
0.166667 0.25 0 
0.111111 0.25 0 
0.127906 0.191363 0 
0.138889 0.25 0 
0.119508 0.220681 0 
0.147286 0.220681 0 
0.222222 0 0 
0.277778 0 0 
0.250039 0.0422306 0 
0.25 0 0 
0.263909 0.0211153 0 
0.236131 0.0211153 0 
0.277778 0.25 0 
0.222222 0.25 0 
0.254933 0.191246 0 
0.25 0.25 0 
0.238577 0.220623 0 
0.266355 0.220623 0 
0.313894 0.17311 0 
0.372094 0.191363 0 
0.307323 0.214307 0 
0.342994 0.182236 0 
0.339709 0.202835 0 
0.310609 0.193709 0 
0.184314 0.17219 0 
0.195055 0.212508 0 
0.127906 0.191363 0 
0.189685 0.192349 0 
0.16148 0.201935 0 
0.15611 0.181776 0 
0.186957 0.0771869 0 
0.139852 0.0521483 0 
0.195517 0.0365852 0 
0.163404 0.0646676 0 
0.167684 0.0443668 0 
0.191237 0.056886 0 
0.317828 0.0785297 0 
0.30462 0.036434 0 
0.35819 0.0473207 0 
0.311224 0.0574819 0 
0.331405 0.0418774 0 
0.338009 0.0629252 0 
0.127906 0.191363 0 
0.0889587 0.137815 0 
0.148924 0.156468 0 
0.108432 0.164589 0 
0.118941 0.147142 0 
0.138415 0.173915 0 
0.372094 0.191363 0 
0.353917 0.152443 0 
0.400673 0.134965 0 
0.363006 0.171903 0 
0.377295 0.143704 0 
0.386384 0.163164 0 
0.125319 0.123852 0 
0.148924 0.156468 0 
0.0889587 0.137815 0 
0.137122 0.14016 0 
0.118941 0.147142 0 
0.107139 0.130834 0 
0.0700182 0.175253 0 
0.0889587 0.137815 0 
0.127906 0.191363 0 
0.0794885 0.156534 0 
0.108432 0.164589 0 
0.0989619 0.183308 0 
0.429982 0.175253 0 
0.372094 0.191363 0 
0.400673 0.134965 0 
0.401038 0.183308 0 
0.386384 0.163164 0 
0.415327 0.155109 0 
0.368083 0.120854 0 
0.400673 0.134965 0 
0.353917 0.152443 0 
0.384378 0.127909 0 
0.377295 0.143704 0 
0.361 0.136648 0 
0.313894 0.17311 0 
0.254933 0.191246 0 
0.288753 0.140362 0 
0.284413 0.182178 0 
0.271843 0.165804 0 
0.301324 0.156736 0 
0.0662182 0.0845792 0 
0.0889587 0.137815 0 
0.0461581 0.125874 0 
0.0775884 0.111197 0 
0.0675584 0.131845 0 
0.0561881 0.105227 0 
0.433782 0.0845792 0 
0.453842 0.125874 0 
0.400673 0.134965 0 
0.443812 0.105227 0 
0.427257 0.130419 0 
0.417227 0.109772 0 
0.313894 0.17311 0 
0.307323 0.214307 0 
0.254933 0.191246 0 
0.310609 0.193709 0 
0.281128 0.202776 0 
0.284413 0.182178 0 
0.25 0.126127 0 
0.288753 0.140362 0 
0.254933 0.191246 0 
0.269377 0.133245 0 
0.271843 0.165804 0 
0.252466 0.158686 0 
0.226229 0.0836202 0 
0.186957 0.0771869 0 
0.195517 0.0365852 0 
0.206593 0.0804035 0 
0.191237 0.056886 0 
0.210873 0.0601027 0 
0.277408 0.0919719 0 
0.30462 0.036434 0 
0.317828 0.0785297 0 
0.291014 0.064203 0 
0.311224 0.0574819 0 
0.297618 0.0852508 0 
0.250039 0.0422306 0 
0.226229 0.0836202 0 
0.195517 0.0365852 0 
0.238134 0.0629254 0 
0.210873 0.0601027 0 
0.222778 0.0394079 0 
0.250039 0.0422306 0 
0.30462 0.036434 0 
0.277408 0.0919719 0 
0.277329 0.0393323 0 
0.291014 0.064203 0 
0.263724 0.0671013 0 
0.277778 0 0 
0.30462 0.036434 0 
0.250039 0.0422306 0 
0.291199 0.018217 0 
0.277329 0.0393323 0 
0.263909 0.0211153 0 
0.222222 0 0 
0.250039 0.0422306 0 
0.195517 0.0365852 0 
0.236131 0.0211153 0 
0.222778 0.0394079 0 
0.208869 0.0182926 0 
0.222222 0.25 0 
0.195055 0.212508 0 
0.254933 0.191246 0 
0.208639 0.231254 0 
0.224994 0.201877 0 
0.238577 0.220623 0 
0.277778 0.25 0 
0.254933 0.191246 0 
0.307323 0.214307 0 
0.266355 0.220623 0 
0.281128 0.202776 0 
0.292551 0.232153 0 
0.0662182 0.0845792 0 
0.108677 0.0911812 0 
0.0889587 0.137815 0 
0.0874478 0.0878802 0 
0.098818 0.114498 0 
0.0775884 0.111197 0 
0.433782 0.0845792 0 
0.400673 0.134965 0 
0.389785 0.0881143 0 
0.417227 0.109772 0 
0.395229 0.11154 0 
0.411784 0.0863468 0 
0.25 0.126127 0 
0.254933 0.191246 0 
0.221655 0.161308 0 
0.252466 0.158686 0 
0.238294 0.176277 0 
0.235827 0.143717 0 
0.254933 0.191246 0 
0.195055 0.212508 0 
0.221655 0.161308 0 
0.224994 0.201877 0 
0.208355 0.186908 0 
0.238294 0.176277 0 
0.5 0.1 0 
0.5 0.15 0 
0.453842 0.125874 0 
0.5 0.125 0 
0.476921 0.137937 0 
0.476921 0.112937 0 
0 0.15 0 
0 0.1 0 
0.0461581 0.125874 0 
0 0.125 0 
0.0230791 0.112937 0 
0.0230791 0.137937 0 
0.184314 0.17219 0 
0.221655 0.161308 0 
0.195055 0.212508 0 
0.202985 0.166749 0 
0.208355 0.186908 0 
0.189685 0.192349 0 
0.5 0 0 
0.5 0.05 0 
0.458664 0.0411432 0 
0.5 0.025 0 
0.479332 0.0455716 0 
0.479332 0.0205716 0 
0.5 0.25 0 
0.459708 0.210479 0 
0.5 0.2 0 
0.479854 0.23024 0 
0.479854 0.20524 0 
0.5 0.225 0 
0 0.25 0 
0 0.2 0 
0.0402924 0.210479 0 
0 0.225 0 
0.0201462 0.20524 0 
0.0201462 0.23024 0 
0 0 0 
0.0413364 0.0411432 0 
0 0.05 0 
0.0206682 0.0205716 0 
0.0206682 0.0455716 0 
0 0.025 0 
0.186957 0.0771869 0 
0.15376 0.106133 0 
0.139852 0.0521483 0 
0.170359 0.0916599 0 
0.146806 0.0791406 0 
0.163404 0.0646676 0 
0.5 0 0 
0.458664 0.0411432 0 
0.444444 0 0 
0.479332 0.0205716 0 
0.451554 0.0205716 0 
0.472222 0 0 
0.5 0.25 0 
0.444444 0.25 0 
0.459708 0.210479 0 
0.472222 0.25 0 
0.452076 0.23024 0 
0.479854 0.23024 0 
0 0.25 0 
0.0402924 0.210479 0 
0.0555556 0.25 0 
0.0201462 0.23024 0 
0.047924 0.23024 0 
0.0277778 0.25 0 
0 0 0 
0.0555556 0 0 
0.0413364 0.0411432 0 
0.0277778 0 0 
0.048446 0.0205716 0 
0.0206682 0.0205716 0 
0.139852 0.0521483 0 
0.15376 0.106133 0 
0.108677 0.0911812 0 
0.146806 0.0791406 0 
0.131219 0.098657 0 
0.124264 0.0716647 0 
0.429982 0.175253 0 
0.414833 0.215276 0 
0.372094 0.191363 0 
0.422407 0.195265 0 
0.393464 0.203319 0 
0.401038 0.183308 0 
0.0700182 0.175253 0 
0.127906 0.191363 0 
0.0851671 0.215276 0 
0.0989619 0.183308 0 
0.106536 0.203319 0 
0.0775927 0.195265 0 
0.111111 0 0 
0.139852 0.0521483 0 
0.0865297 0.0446937 0 
0.125481 0.0260742 0 
0.113191 0.048421 0 
0.0988204 0.0223469 0 
0.388889 0 0 
0.413144 0.0438891 0 
0.35819 0.0473207 0 
0.401016 0.0219446 0 
0.385667 0.0456049 0 
0.373539 0.0236603 0 
0.388889 0.25 0 
0.372094 0.191363 0 
0.414833 0.215276 0 
0.380492 0.220681 0 
0.393464 0.203319 0 
0.401861 0.232638 0 
0.111111 0.25 0 
0.0851671 0.215276 0 
0.127906 0.191363 0 
0.0981391 0.232638 0 
0.106536 0.203319 0 
0.119508 0.220681 0 
0.317828 0.0785297 0 
0.35819 0.0473207 0 
0.352576 0.0918526 0 
0.338009 0.0629252 0 
0.355383 0.0695866 0 
0.335202 0.0851912 0 
0.317828 0.0785297 0 
0.323883 0.122267 0 
0.277408 0.0919719 0 
0.320855 0.100398 0 
0.300646 0.107119 0 
0.297618 0.0852508 0 
0.323883 0.122267 0 
0.288753 0.140362 0 
0.277408 0.0919719 0 
0.306318 0.131315 0 
0.283081 0.116167 0 
0.300646 0.107119 0 
0.313894 0.17311 0 
0.353917 0.152443 0 
0.372094 0.191363 0 
0.333905 0.162777 0 
0.363006 0.171903 0 
0.342994 0.182236 0 
0.184314 0.17219 0 
0.127906 0.191363 0 
0.148924 0.156468 0 
0.15611 0.181776 0 
0.138415 0.173915 0 
0.166619 0.164329 0 
0 0.15 0 
0.0461581 0.125874 0 
0.0310137 0.172345 0 
0.0230791 0.137937 0 
0.0385859 0.149109 0 
0.0155068 0.161172 0 
0 0.1 0 
0.0310137 0.0776551 0 
0.0461581 0.125874 0 
0.0155068 0.0888275 0 
0.0385859 0.101765 0 
0.0230791 0.112937 0 
0.5 0.1 0 
0.453842 0.125874 0 
0.468986 0.0776551 0 
0.476921 0.112937 0 
0.461414 0.101765 0 
0.484493 0.0888275 0 
0.5 0.15 0 
0.468986 0.172345 0 
0.453842 0.125874 0 
0.484493 0.161172 0 
0.461414 0.149109 0 
0.476921 0.137937 0 
0.184314 0.17219 0 
0.148924 0.156468 0 
0.197455 0.12762 0 
0.166619 0.164329 0 
0.17319 0.142044 0 
0.190885 0.149905 0 
0.125319 0.123852 0 
0.108677 0.0911812 0 
0.15376 0.106133 0 
0.116998 0.107517 0 
0.131219 0.098657 0 
0.13954 0.114993 0 
0.139852 0.0521483 0 
0.108677 0.0911812 0 
0.0865297 0.0446937 0 
0.124264 0.0716647 0 
0.0976035 0.0679375 0 
0.113191 0.048421 0 
0.35819 0.0473207 0 
0.413144 0.0438891 0 
0.389785 0.0881143 0 
0.385667 0.0456049 0 
0.401465 0.0660017 0 
0.373988 0.0677175 0 
0.197455 0.12762 0 
0.148924 0.156468 0 
0.15376 0.106133 0 
0.17319 0.142044 0 
0.151342 0.1313 0 
0.175608 0.116876 0 
0.0662182 0.0845792 0 
0.0865297 0.0446937 0 
0.108677 0.0911812 0 
0.0763739 0.0646365 0 
0.0976035 0.0679375 0 
0.0874478 0.0878802 0 
0.433782 0.0845792 0 
0.389785 0.0881143 0 
0.413144 0.0438891 0 
0.411784 0.0863468 0 
0.401465 0.0660017 0 
0.423463 0.0642342 0 
0.0700182 0.175253 0 
0.0310137 0.172345 0 
0.0461581 0.125874 0 
0.050516 0.173799 0 
0.0385859 0.149109 0 
0.0580882 0.150564 0 
0.433782 0.0845792 0 
0.468986 0.0776551 0 
0.453842 0.125874 0 
0.451384 0.0811171 0 
0.461414 0.101765 0 
0.443812 0.105227 0 
0.429982 0.175253 0 
0.453842 0.125874 0 
0.468986 0.172345 0 
0.441912 0.150564 0 
0.461414 0.149109 0 
0.449484 0.173799 0 
0.0662182 0.0845792 0 
0.0461581 0.125874 0 
0.0310137 0.0776551 0 
0.0561881 0.105227 0 
0.0385859 0.101765 0 
0.0486159 0.0811171 0 
0.444444 0.25 0 
0.388889 0.25 0 
0.414833 0.215276 0 
0.416667 0.25 0 
0.401861 0.232638 0 
0.429639 0.232638 0 
0.0555556 0 0 
0.111111 0 0 
0.0865297 0.0446937 0 
0.0833333 0 0 
[...]
CELL_DATA 134
FIELD FieldData 1
material 1 134 int
0
0
0
0
0
0
0
0
0
0
0
0
0
0
0
0
0
0
0
0
0
0
0
0
0
0
0
0
0
0
0
0
0
0
0
0
0
0
0
0
0
0
0
0
0
0
0
0
0
0
0
0
0
0
0
0
0
0
0
0
0
0
0
0
0
0
0
0
0
0
0
0
0
0
0
0
0
0
0
0
0
0
0
0
0
0
0
0
0
0
0
0
0
0
0
0
0
0
0
0
0
0
0
0
0
0
0
0
0
0
0
0
0
0
0
0
0
0
0
0
0
0
0
0
1
1
1
1
1
2
2
2
2
2
FIELD FieldData 1
elindex 1 134 int
0
1
2
3
4
5
6
7
8
9
10
11
12
13
14
15
16
17
18
19
20
21
22
23
24
25
26
27
28
29
30
31
32
33
34
35
36
37
38
39
40
41
42
43
44
45
46
47
48
49
50
51
52
53
54
55
56
57
58
59
60
61
62
63
64
65
66
67
68
69
70
71
72
73
74
75
76
77
78
79
80
81
82
83
84
85
86
87
88
89
90
91
92
93
94
95
96
97
98
99
100
101
102
103
104
105
106
107
108
109
110
111
112
113
114
115
116
117
118
119
120
121
122
123
124
125
126
127
128
129
130
131
132
133
POINT_DATA 774
VECTORS Solution float
-7.97196e-06 -1.32372e-06 0 
-6.67621e-06 -2.17717e-06 0 
-6.54428e-06 -3.35889e-07 0 
-7.32408e-06 -1.75044e-06 0 
-6.61024e-06 -1.25653e-06 0 
-7.25812e-06 -8.29802e-07 0 

-6.50513e-06 -6.25862e-06 0 
-4.46059e-06 -7.56539e-06 0 
-5.65526e-06 -5.50553e-06 0 
-5.48286e-06 -6.91201e-06 0 
-5.05792e-06 -6.53546e-06 0 
-6.08019e-06 -5.88207e-06 0 

8.95596e-07 -6.83467e-06 0 
-4.5101e-07 -5.89397e-06 0 
-4.3751e-07 -7.48643e-06 0 
2.22293e-07 -6.36432e-06 0 
-4.4426e-07 -6.6902e-06 0 
2.29043e-07 -7.16055e-06 0 

-5.6795e-07 -1.90066e-06 0 
-2.16914e-06 -1.03336e-06 0 
-1.38599e-06 -2.66493e-06 0 
-1.36855e-06 -1.46701e-06 0 
-1.77757e-06 -1.84915e-06 0 
-9.76971e-07 -2.2828e-06 0 

1.41409e-06 -8.46306e-06 0 
8.95596e-07 -6.83467e-06 0 
-4.3751e-07 -7.48643e-06 0 
1.15484e-06 -7.64886e-06 0 
2.29043e-07 -7.16055e-06 0 
4.88288e-07 -7.97475e-06 0 

-5.6795e-07 -1.90066e-06 0 
-1.08942e-06 -2.37919e-07 0 
-2.16914e-06 -1.03336e-06 0 
-8.28684e-07 -1.06929e-06 0 
-1.62928e-06 -6.35639e-07 0 
-1.36855e-06 -1.46701e-06 0 

-8.48623e-06 3.10695e-07 0 
-7.97196e-06 -1.32372e-06 0 
-6.54428e-06 -3.35889e-07 0 
-8.22909e-06 -5.0651e-07 0 
-7.25812e-06 -8.29802e-07 0 
-7.51526e-06 -1.25969e-08 0 

-6.50513e-06 -6.25862e-06 0 
-5.99051e-06 -7.91299e-06 0 
-4.46059e-06 -7.56539e-06 0 
-6.24782e-06 -7.0858e-06 0 
-5.22555e-06 -7.73919e-06 0 
-5.48286e-06 -6.91201e-06 0 

4.03032e-07 -5.202e-06 0 
-7.67902e-08 -3.55762e-06 0 
-1.08769e-06 -4.27312e-06 0 
1.63121e-07 -4.37981e-06 0 
-5.82239e-07 -3.91537e-06 0 
-3.42328e-07 -4.73756e-06 0 

-7.47847e-06 -2.9545e-06 0 
-6.99877e-06 -4.60042e-06 0 
-5.54089e-06 -3.77786e-06 0 
-7.23862e-06 -3.77746e-06 0 
-6.26983e-06 -4.18914e-06 0 
-6.50968e-06 -3.36618e-06 0 

-5.50191e-06 -2.08189e-06 0 
-6.54428e-06 -3.35889e-07 0 
-6.67621e-06 -2.17717e-06 0 
-6.02309e-06 -1.20889e-06 0 
-6.61024e-06 -1.25653e-06 0 
-6.08906e-06 -2.12953e-06 0 

-4.38001e-06 -5.92158e-06 0 
-5.65526e-06 -5.50553e-06 0 
-4.46059e-06 -7.56539e-06 0 
-5.01763e-06 -5.71355e-06 0 
-5.05792e-06 -6.53546e-06 0 
-4.4203e-06 -6.74348e-06 0 

-1.58843e-06 -6.04863e-06 0 
-4.3751e-07 -7.48643e-06 0 
-4.5101e-07 -5.89397e-06 0 
-1.01297e-06 -6.76753e-06 0 
-4.4426e-07 -6.6902e-06 0 
-1.01972e-06 -5.9713e-06 0 

-2.73443e-06 -2.17034e-06 0 
-1.38599e-06 -2.66493e-06 0 
-2.16914e-06 -1.03336e-06 0 
-2.06021e-06 -2.41764e-06 0 
-1.77757e-06 -1.84915e-06 0 
-2.45179e-06 -1.60185e-06 0 

-4.46059e-06 -7.56539e-06 0 
-2.62528e-06 -8.82199e-06 0 
-3.62887e-06 -7.0103e-06 0 
-3.54293e-06 -8.19369e-06 0 
-3.12707e-06 -7.91615e-06 0 
-4.04473e-06 -7.28785e-06 0 

-6.54428e-06 -3.35889e-07 0 
-5.21179e-06 -9.50337e-07 0 
-5.04526e-06 4.01728e-07 0 
-5.87804e-06 -6.43113e-07 0 
-5.12853e-06 -2.74304e-07 0 
-5.79477e-06 3.29197e-08 0 

-2.48533e-06 -7.76773e-06 0 
-3.62887e-06 -7.0103e-06 0 
-2.62528e-06 -8.82199e-06 0 
-3.0571e-06 -7.38902e-06 0 
-3.12707e-06 -7.91615e-06 0 
-2.5553e-06 -8.29486e-06 0 

-3.54832e-06 -9.30843e-06 0 
-2.62528e-06 -8.82199e-06 0 
-4.46059e-06 -7.56539e-06 0 
-3.0868e-06 -9.06521e-06 0 
-3.54293e-06 -8.19369e-06 0 
-4.00446e-06 -8.43691e-06 0 

-6.50243e-06 1.34792e-06 0 
-6.54428e-06 -3.35889e-07 0 
-5.04526e-06 4.01728e-07 0 
-6.52336e-06 5.06015e-07 0 
-5.79477e-06 3.29197e-08 0 
-5.77385e-06 8.74824e-07 0 

-4.38125e-06 -5.87939e-07 0 
-5.04526e-06 4.01728e-07 0 
-5.21179e-06 -9.50337e-07 0 
-4.71326e-06 -9.31053e-08 0 
-5.12853e-06 -2.74304e-07 0 
-4.79652e-06 -7.69138e-07 0 

-5.50191e-06 -2.08189e-06 0 
-5.54089e-06 -3.77786e-06 0 
-4.31757e-06 -2.89798e-06 0 
-5.5214e-06 -2.92988e-06 0 
-4.92923e-06 -3.33792e-06 0 
-4.90974e-06 -2.48994e-06 0 

-8.54655e-07 -9.59589e-06 0 
-2.62528e-06 -8.82199e-06 0 
-1.96859e-06 -1.01085e-05 0 
-1.73997e-06 -9.20894e-06 0 
-2.29694e-06 -9.46525e-06 0 
-1.41162e-06 -9.8522e-06 0 

-3.82632e-06 1.2866e-06 0 
-5.15744e-06 1.96142e-06 0 
-5.04526e-06 4.01728e-07 0 
-4.49188e-06 1.62401e-06 0 
-5.10135e-06 1.18157e-06 0 
-4.43579e-06 8.44162e-07 0 

-5.50191e-06 -2.08189e-06 0 
-6.67621e-06 -2.17717e-06 0 
-5.54089e-06 -3.77786e-06 0 
-6.08906e-06 -2.12953e-06 0 
-6.10855e-06 -2.97752e-06 0 
-5.5214e-06 -2.92988e-06 0 

-3.57114e-06 -4.07526e-06 0 
-4.31757e-06 -2.89798e-06 0 
-5.54089e-06 -3.77786e-06 0 
-3.94436e-06 -3.48662e-06 0 
-4.92923e-06 -3.33792e-06 0 
-4.55602e-06 -3.92656e-06 0 

-2.1103e-06 -4.87629e-06 0 
-1.58843e-06 -6.04863e-06 0 
-4.5101e-07 -5.89397e-06 0 
-1.84937e-06 -5.46246e-06 0 
-1.01972e-06 -5.9713e-06 0 
-1.28066e-06 -5.38513e-06 0 

-2.79036e-06 -3.34124e-06 0 
-1.38599e-06 -2.66493e-06 0 
-2.73443e-06 -2.17034e-06 0 
-2.08818e-06 -3.00308e-06 0 
-2.06021e-06 -2.41764e-06 0 
-2.7624e-06 -2.75579e-06 0 

-1.08769e-06 -4.27312e-06 0 
-2.1103e-06 -4.87629e-06 0 
-4.5101e-07 -5.89397e-06 0 
-1.599e-06 -4.5747e-06 0 
-1.28066e-06 -5.38513e-06 0 
-7.69349e-07 -5.08354e-06 0 

-1.08769e-06 -4.27312e-06 0 
-1.38599e-06 -2.66493e-06 0 
-2.79036e-06 -3.34124e-06 0 
-1.23684e-06 -3.46903e-06 0 
-2.08818e-06 -3.00308e-06 0 
-1.93903e-06 -3.80718e-06 0 

-7.67902e-08 -3.55762e-06 0 
-1.38599e-06 -2.66493e-06 0 
-1.08769e-06 -4.27312e-06 0 
-7.31391e-07 -3.11127e-06 0 
-1.23684e-06 -3.46903e-06 0 
-5.82239e-07 -3.91537e-06 0 

4.03032e-07 -5.202e-06 0 
-1.08769e-06 -4.27312e-06 0 
-4.5101e-07 -5.89397e-06 0 
-3.42328e-07 -4.73756e-06 0 
-7.69349e-07 -5.08354e-06 0 
-2.39891e-08 -5.54799e-06 0 

-6.99877e-06 -4.60042e-06 0 
-5.65526e-06 -5.50553e-06 0 
-5.54089e-06 -3.77786e-06 0 
-6.32701e-06 -5.05297e-06 0 
-5.59807e-06 -4.64169e-06 0 
-6.26983e-06 -4.18914e-06 0 

-7.47847e-06 -2.9545e-06 0 
-5.54089e-06 -3.77786e-06 0 
-6.67621e-06 -2.17717e-06 0 
-6.50968e-06 -3.36618e-06 0 
-6.10855e-06 -2.97752e-06 0 
-7.07734e-06 -2.56584e-06 0 

-8.54655e-07 -9.59589e-06 0 
-1.37618e-06 -8.32142e-06 0 
-2.62528e-06 -8.82199e-06 0 
-1.11542e-06 -8.95866e-06 0 
-2.00073e-06 -8.57171e-06 0 
-1.73997e-06 -9.20894e-06 0 

-3.82632e-06 1.2866e-06 0 
-5.04526e-06 4.01728e-07 0 
-3.59548e-06 -4.07371e-09 0 
-4.43579e-06 8.44162e-07 0 
-4.32037e-06 1.98827e-07 0 
-3.7109e-06 6.41262e-07 0 

-3.57114e-06 -4.07526e-06 0 
-5.54089e-06 -3.77786e-06 0 
-4.37389e-06 -4.83622e-06 0 
-4.55602e-06 -3.92656e-06 0 
-4.95739e-06 -4.30704e-06 0 
-3.97252e-06 -4.45574e-06 0 

-5.54089e-06 -3.77786e-06 0 
-5.65526e-06 -5.50553e-06 0 
-4.37389e-06 -4.83622e-06 0 
-5.59807e-06 -4.64169e-06 0 
-5.01457e-06 -5.17087e-06 0 
-4.95739e-06 -4.30704e-06 0 

-4.75439e-06 3.21168e-06 0 
-6.2342e-06 3.43844e-06 0 
-5.15744e-06 1.96142e-06 0 
-5.49429e-06 3.32506e-06 0 
-5.69582e-06 2.69993e-06 0 
-4.95591e-06 2.58655e-06 0 

-2.32065e-06 -1.13645e-05 0 
-8.39773e-07 -1.15909e-05 0 
-1.96859e-06 -1.01085e-05 0 
-1.58021e-06 -1.14777e-05 0 
-1.40418e-06 -1.08497e-05 0 
-2.14462e-06 -1.07365e-05 0 

-4.38001e-06 -5.92158e-06 0 
-4.37389e-06 -4.83622e-06 0 
-5.65526e-06 -5.50553e-06 0 
-4.37695e-06 -5.3789e-06 0 
-5.01457e-06 -5.17087e-06 0 
-5.01763e-06 -5.71355e-06 0 

-2.43685e-06 2.77393e-06 0 
-3.41342e-06 2.94845e-06 0 
-2.8685e-06 1.90096e-06 0 
-2.92513e-06 2.86119e-06 0 
-3.14096e-06 2.4247e-06 0 
-2.65268e-06 2.33744e-06 0 

-9.85562e-06 3.88756e-06 0 
-7.90077e-06 2.33962e-06 0 
-7.85382e-06 3.70394e-06 0 
-8.8782e-06 3.11359e-06 0 
-7.8773e-06 3.02178e-06 0 
-8.85472e-06 3.79575e-06 0 

-4.62134e-06 -1.09153e-05 0 
-3.66221e-06 -1.1099e-05 0 
-4.23589e-06 -1.00772e-05 0 
-4.14177e-06 -1.10072e-05 0 
-3.94905e-06 -1.05881e-05 0 
-4.42861e-06 -1.04963e-05 0 

2.76136e-06 -1.20276e-05 0 
7.58565e-07 -1.04542e-05 0 
7.79136e-07 -1.18534e-05 0 
1.75996e-06 -1.12409e-05 0 
7.6885e-07 -1.11538e-05 0 
1.77025e-06 -1.19405e-05 0 

-1.58843e-06 -6.04863e-06 0 
-2.18507e-06 -6.96592e-06 0 
-4.3751e-07 -7.48643e-06 0 
-1.88675e-06 -6.50728e-06 0 
-1.31129e-06 -7.22618e-06 0 
-1.01297e-06 -6.76753e-06 0 

-2.43685e-06 2.77393e-06 0 
-2.8685e-06 1.90096e-06 0 
-1.69364e-06 1.37584e-06 0 
-2.65268e-06 2.33744e-06 0 
-2.28107e-06 1.6384e-06 0 
-2.06524e-06 2.07488e-06 0 

-9.85562e-06 3.88756e-06 0 
-9.10561e-06 1.98383e-06 0 
-7.90077e-06 2.33962e-06 0 
-9.48061e-06 2.93569e-06 0 
-8.50319e-06 2.16172e-06 0 
-8.8782e-06 3.11359e-06 0 

-4.62134e-06 -1.09153e-05 0 
-4.23589e-06 -1.00772e-05 0 
-5.37126e-06 -9.52921e-06 0 
-4.42861e-06 -1.04963e-05 0 
-4.80357e-06 -9.80322e-06 0 
-4.9963e-06 -1.02223e-05 0 

2.76136e-06 -1.20276e-05 0 
2.01777e-06 -1.01376e-05 0 
7.58565e-07 -1.04542e-05 0 
2.38957e-06 -1.10826e-05 0 
1.38817e-06 -1.02959e-05 0 
1.75996e-06 -1.12409e-05 0 

-4.3751e-07 -7.48643e-06 0 
-2.18507e-06 -6.96592e-06 0 
-1.37618e-06 -8.32142e-06 0 
-1.31129e-06 -7.22618e-06 0 
-1.78063e-06 -7.64367e-06 0 
-9.06847e-07 -7.90393e-06 0 

-6.50243e-06 1.34792e-06 0 
-7.66026e-06 9.79498e-07 0 
-6.54428e-06 -3.35889e-07 0 
-7.08134e-06 1.16371e-06 0 
-7.10227e-06 3.21805e-07 0 
-6.52336e-06 5.06015e-07 0 

-3.54832e-06 -9.30843e-06 0 
-4.46059e-06 -7.56539e-06 0 
-4.76043e-06 -8.78014e-06 0 
-4.00446e-06 -8.43691e-06 0 
-4.61051e-06 -8.17276e-06 0 
-4.15438e-06 -9.04428e-06 0 

1.41409e-06 -8.46306e-06 0 
-4.3751e-07 -7.48643e-06 0 
2.51162e-07 -9.06842e-06 0 
4.88288e-07 -7.97475e-06 0 
-9.31737e-08 -8.27743e-06 0 
8.32624e-07 -8.76574e-06 0 

-1.08942e-06 -2.37919e-07 0 
-2.54666e-06 5.99865e-07 0 
-2.16914e-06 -1.03336e-06 0 
-1.81804e-06 1.80973e-07 0 
-2.3579e-06 -2.16747e-07 0 
-1.62928e-06 -6.35639e-07 0 

-8.48623e-06 3.10695e-07 0 
-6.54428e-06 -3.35889e-07 0 
-7.66026e-06 9.79498e-07 0 
-7.51526e-06 -1.25969e-08 0 
-7.10227e-06 3.21805e-07 0 
-8.07325e-06 6.45096e-07 0 

-5.99051e-06 -7.91299e-06 0 
-4.76043e-06 -8.78014e-06 0 
-4.46059e-06 -7.56539e-06 0 
-5.37547e-06 -8.34656e-06 0 
-4.61051e-06 -8.17276e-06 0 
-5.22555e-06 -7.73919e-06 0 

-2.73443e-06 -2.17034e-06 0 
-2.16914e-06 -1.03336e-06 0 
-3.40766e-06 -1.10651e-06 0 
-2.45179e-06 -1.60185e-06 0 
-2.7884e-06 -1.06993e-06 0 
-3.07105e-06 -1.63842e-06 0 

-2.73443e-06 -2.17034e-06 0 
-4.0704e-06 -1.89653e-06 0 
-2.79036e-06 -3.34124e-06 0 
-3.40242e-06 -2.03343e-06 0 
-3.43038e-06 -2.61888e-06 0 
-2.7624e-06 -2.75579e-06 0 

-4.0704e-06 -1.89653e-06 0 
-4.31757e-06 -2.89798e-06 0 
-2.79036e-06 -3.34124e-06 0 
-4.19398e-06 -2.39725e-06 0 
-3.55397e-06 -3.11961e-06 0 
-3.43038e-06 -2.61888e-06 0 

-5.50191e-06 -2.08189e-06 0 
-5.21179e-06 -9.50337e-07 0 
-6.54428e-06 -3.35889e-07 0 
-5.35685e-06 -1.51611e-06 0 
-5.87804e-06 -6.43113e-07 0 
-6.02309e-06 -1.20889e-06 0 

-4.38001e-06 -5.92158e-06 0 
-4.46059e-06 -7.56539e-06 0 
-3.62887e-06 -7.0103e-06 0 
-4.4203e-06 -6.74348e-06 0 
-4.04473e-06 -7.28785e-06 0 
-4.00444e-06 -6.46594e-06 0 

-2.32065e-06 -1.13645e-05 0 
-1.96859e-06 -1.01085e-05 0 
-3.17964e-06 -1.04131e-05 0 
-2.14462e-06 -1.07365e-05 0 
-2.57412e-06 -1.02608e-05 0 
-2.75014e-06 -1.08888e-05 0 

-8.39773e-07 -1.15909e-05 0 
-3.76113e-07 -1.07072e-05 0 
-1.96859e-06 -1.01085e-05 0 
-6.07943e-07 -1.11491e-05 0 
-1.17235e-06 -1.04079e-05 0 
-1.40418e-06 -1.08497e-05 0 

-4.75439e-06 3.21168e-06 0 
-5.15744e-06 1.96142e-06 0 
-3.89507e-06 2.25911e-06 0 
-4.95591e-06 2.58655e-06 0 
-4.52626e-06 2.11026e-06 0 
-4.32473e-06 2.7354e-06 0 

-6.2342e-06 3.43844e-06 0 
-6.69862e-06 2.55335e-06 0 
-5.15744e-06 1.96142e-06 0 
-6.46641e-06 2.99589e-06 0 
-5.92803e-06 2.25738e-06 0 
-5.69582e-06 2.69993e-06 0 

-4.38001e-06 -5.92158e-06 0 
-3.62887e-06 -7.0103e-06 0 
-3.17675e-06 -5.62904e-06 0 
-4.00444e-06 -6.46594e-06 0 
-3.40281e-06 -6.31967e-06 0 
-3.77838e-06 -5.77531e-06 0 

-2.48533e-06 -7.76773e-06 0 
-1.37618e-06 -8.32142e-06 0 
-2.18507e-06 -6.96592e-06 0 
-1.93076e-06 -8.04457e-06 0 
-1.78063e-06 -7.64367e-06 0 
-2.3352e-06 -7.36682e-06 0 

-4.3751e-07 -7.48643e-06 0 
-1.37618e-06 -8.32142e-06 0 
2.51162e-07 -9.06842e-06 0 
-9.06847e-07 -7.90393e-06 0 
-5.62511e-07 -8.69492e-06 0 
-9.31737e-08 -8.27743e-06 0 

-2.16914e-06 -1.03336e-06 0 
-2.54666e-06 5.99865e-07 0 
-3.59548e-06 -4.07371e-09 0 
-2.3579e-06 -2.16747e-07 0 
-3.07107e-06 2.97896e-07 0 
-2.88231e-06 -5.18716e-07 0 

-3.17675e-06 -5.62904e-06 0 
-3.62887e-06 -7.0103e-06 0 
-2.18507e-06 -6.96592e-06 0 
-3.40281e-06 -6.31967e-06 0 
-2.90697e-06 -6.98811e-06 0 
-2.68091e-06 -6.29748e-06 0 

-8.54655e-07 -9.59589e-06 0 
2.51162e-07 -9.06842e-06 0 
-1.37618e-06 -8.32142e-06 0 
-3.01746e-07 -9.33216e-06 0 
-5.62511e-07 -8.69492e-06 0 
-1.11542e-06 -8.95866e-06 0 

-3.82632e-06 1.2866e-06 0 
-3.59548e-06 -4.07371e-09 0 
-2.54666e-06 5.99865e-07 0 
-3.7109e-06 6.41262e-07 0 
-3.07107e-06 2.97896e-07 0 
-3.18649e-06 9.43231e-07 0 

-3.54832e-06 -9.30843e-06 0 
-3.17964e-06 -1.04131e-05 0 
-1.96859e-06 -1.01085e-05 0 
-3.36398e-06 -9.86077e-06 0 
-2.57412e-06 -1.02608e-05 0 
-2.75846e-06 -9.70848e-06 0 

-3.82632e-06 1.2866e-06 0 
-3.89507e-06 2.25911e-06 0 
-5.15744e-06 1.96142e-06 0 
-3.8607e-06 1.77285e-06 0 
-4.52626e-06 2.11026e-06 0 
-4.49188e-06 1.62401e-06 0 

-6.50243e-06 1.34792e-06 0 
-5.15744e-06 1.96142e-06 0 
-6.69862e-06 2.55335e-06 0 
-5.82994e-06 1.65467e-06 0 
-5.92803e-06 2.25738e-06 0 
-6.60053e-06 1.95064e-06 0 

-8.54655e-07 -9.59589e-06 0 
-1.96859e-06 -1.01085e-05 0 
-3.76113e-07 -1.07072e-05 0 
-1.41162e-06 -9.8522e-06 0 
-1.17235e-06 -1.04079e-05 0 
-6.15384e-07 -1.01516e-05 0 

-9.10561e-06 1.98383e-06 0 
-8.48623e-06 3.10695e-07 0 
-7.66026e-06 9.79498e-07 0 
-8.79592e-06 1.14726e-06 0 
-8.07325e-06 6.45096e-07 0 
-8.38293e-06 1.48166e-06 0 

2.01777e-06 -1.01376e-05 0 
1.41409e-06 -8.46306e-06 0 
2.51162e-07 -9.06842e-06 0 
1.71593e-06 -9.30034e-06 0 
8.32624e-07 -8.76574e-06 0 
1.13447e-06 -9.60303e-06 0 

-5.99051e-06 -7.91299e-06 0 
-5.37126e-06 -9.52921e-06 0 
-4.76043e-06 -8.78014e-06 0 
-5.68088e-06 -8.7211e-06 0 
-5.06584e-06 -9.15467e-06 0 
-5.37547e-06 -8.34656e-06 0 

-1.08942e-06 -2.37919e-07 0 
-1.69364e-06 1.37584e-06 0 
-2.54666e-06 5.99865e-07 0 
-1.39153e-06 5.68959e-07 0 
-2.12015e-06 9.87851e-07 0 
-1.81804e-06 1.80973e-07 0 

8.95596e-07 -6.83467e-06 0 
4.03032e-07 -5.202e-06 0 
-4.5101e-07 -5.89397e-06 0 
6.49314e-07 -6.01834e-06 0 
-2.39891e-08 -5.54799e-06 0 
2.22293e-07 -6.36432e-06 0 

-7.67902e-08 -3.55762e-06 0 
-5.6795e-07 -1.90066e-06 0 
-1.38599e-06 -2.66493e-06 0 
-3.2237e-07 -2.72914e-06 0 
-9.76971e-07 -2.2828e-06 0 
-7.31391e-07 -3.11127e-06 0 

-7.97196e-06 -1.32372e-06 0 
-7.47847e-06 -2.9545e-06 0 
-6.67621e-06 -2.17717e-06 0 
-7.72521e-06 -2.13911e-06 0 
-7.07734e-06 -2.56584e-06 0 
-7.32408e-06 -1.75044e-06 0 

-6.99877e-06 -4.60042e-06 0 
-6.50513e-06 -6.25862e-06 0 
-5.65526e-06 -5.50553e-06 0 
-6.75195e-06 -5.42952e-06 0 
-6.08019e-06 -5.88207e-06 0 
-6.32701e-06 -5.05297e-06 0 

-3.54832e-06 -9.30843e-06 0 
-1.96859e-06 -1.01085e-05 0 
-2.62528e-06 -8.82199e-06 0 
-2.75846e-06 -9.70848e-06 0 
-2.29694e-06 -9.46525e-06 0 
-3.0868e-06 -9.06521e-06 0 

-6.50243e-06 1.34792e-06 0 
-5.04526e-06 4.01728e-07 0 
-5.15744e-06 1.96142e-06 0 
-5.77385e-06 8.74824e-07 0 
-5.10135e-06 1.18157e-06 0 
-5.82994e-06 1.65467e-06 0 

-3.66221e-06 -1.1099e-05 0 
-2.32065e-06 -1.13645e-05 0 
-3.17964e-06 -1.04131e-05 0 
-2.99143e-06 -1.12318e-05 0 
-2.75014e-06 -1.08888e-05 0 
-3.42093e-06 -1.07561e-05 0 

-3.41342e-06 2.94845e-06 0 
-4.75439e-06 3.21168e-06 0 
-3.89507e-06 2.25911e-06 0 
-4.0839e-06 3.08007e-06 0 
-4.32473e-06 2.7354e-06 0 
-3.65425e-06 2.60378e-06 0 

-8.39773e-07 -1.15909e-05 0 
7.79136e-07 -1.18534e-05 0 
-3.76113e-07 -1.07072e-05 0 
-3.03184e-08 -1.17222e-05 0 
2.01512e-07 -1.12803e-05 0 
-6.07943e-07 -1.11491e-05 0 

-6.2342e-06 3.43844e-06 0 
-7.85382e-06 3.70394e-06 0 
-6.69862e-06 2.55335e-06 0 
-7.04401e-06 3.57119e-06 0 
-7.27622e-06 3.12865e-06 0 
-6.46641e-06 2.99589e-06 0 

-4.38125e-06 -5.87939e-07 0 
-3.59548e-06 -4.07371e-09 0 
-5.04526e-06 4.01728e-07 0 
-3.98837e-06 -2.96006e-07 0 
-4.32037e-06 1.98827e-07 0 
-4.71326e-06 -9.31053e-08 0 

-2.48533e-06 -7.76773e-06 0 
-2.62528e-06 -8.82199e-06 0 
-1.37618e-06 -8.32142e-06 0 
-2.5553e-06 -8.29486e-06 0 
-2.00073e-06 -8.57171e-06 0 
-1.93076e-06 -8.04457e-06 0 

-5.37126e-06 -9.52921e-06 0 
-4.23589e-06 -1.00772e-05 0 
-4.76043e-06 -8.78014e-06 0 
-4.80357e-06 -9.80322e-06 0 
-4.49816e-06 -9.42868e-06 0 
-5.06584e-06 -9.15467e-06 0 

-1.69364e-06 1.37584e-06 0 
-2.8685e-06 1.90096e-06 0 
-2.54666e-06 5.99865e-07 0 
-2.28107e-06 1.6384e-06 0 
-2.70758e-06 1.25041e-06 0 
-2.12015e-06 9.87851e-07 0 

-9.10561e-06 1.98383e-06 0 
-7.66026e-06 9.79498e-07 0 
-7.90077e-06 2.33962e-06 0 
-8.38293e-06 1.48166e-06 0 
-7.78052e-06 1.65956e-06 0 
-8.50319e-06 2.16172e-06 0 

2.01777e-06 -1.01376e-05 0 
2.51162e-07 -9.06842e-06 0 
7.58565e-07 -1.04542e-05 0 
1.13447e-06 -9.60303e-06 0 
5.04863e-07 -9.76131e-06 0 
1.38817e-06 -1.02959e-05 0 

-1.58843e-06 -6.04863e-06 0 
-2.1103e-06 -4.87629e-06 0 
-3.17675e-06 -5.62904e-06 0 
-1.84937e-06 -5.46246e-06 0 
-2.64353e-06 -5.25266e-06 0 
-2.38259e-06 -5.83884e-06 0 

-1.58843e-06 -6.04863e-06 0 
-3.17675e-06 -5.62904e-06 0 
-2.18507e-06 -6.96592e-06 0 
-2.38259e-06 -5.83884e-06 0 
-2.68091e-06 -6.29748e-06 0 
-1.88675e-06 -6.50728e-06 0 

-2.73443e-06 -2.17034e-06 0 
-3.40766e-06 -1.10651e-06 0 
-4.0704e-06 -1.89653e-06 0 
-3.07105e-06 -1.63842e-06 0 
-3.73903e-06 -1.50152e-06 0 
-3.40242e-06 -2.03343e-06 0 

-3.57114e-06 -4.07526e-06 0 
-3.17675e-06 -5.62904e-06 0 
-2.1103e-06 -4.87629e-06 0 
-3.37395e-06 -4.85215e-06 0 
-2.64353e-06 -5.25266e-06 0 
-2.84072e-06 -4.47578e-06 0 

-4.38001e-06 -5.92158e-06 0 
-3.17675e-06 -5.62904e-06 0 
-4.37389e-06 -4.83622e-06 0 
-3.77838e-06 -5.77531e-06 0 
-3.77532e-06 -5.23263e-06 0 
-4.37695e-06 -5.3789e-06 0 

-3.57114e-06 -4.07526e-06 0 
-4.37389e-06 -4.83622e-06 0 
-3.17675e-06 -5.62904e-06 0 
-3.97252e-06 -4.45574e-06 0 
-3.77532e-06 -5.23263e-06 0 
-3.37395e-06 -4.85215e-06 0 

-5.50191e-06 -2.08189e-06 0 
-4.31757e-06 -2.89798e-06 0 
-4.0704e-06 -1.89653e-06 0 
-4.90974e-06 -2.48994e-06 0 
-4.19398e-06 -2.39725e-06 0 
-4.78615e-06 -1.98921e-06 0 

-3.57114e-06 -4.07526e-06 0 
-2.79036e-06 -3.34124e-06 0 
-4.31757e-06 -2.89798e-06 0 
-3.18075e-06 -3.70825e-06 0 
-3.55397e-06 -3.11961e-06 0 
-3.94436e-06 -3.48662e-06 0 

-5.50191e-06 -2.08189e-06 0 
-4.0704e-06 -1.89653e-06 0 
-5.21179e-06 -9.50337e-07 0 
-4.78615e-06 -1.98921e-06 0 
-4.6411e-06 -1.42343e-06 0 
-5.35685e-06 -1.51611e-06 0 

-3.54832e-06 -9.30843e-06 0 
-4.76043e-06 -8.78014e-06 0 