# vtk DataFile Version 3.0
TPZGeoMesh VTK Visualization
ASCII

DATASET UNSTRUCTURED_GRID
POINTS 18 float
0 0 0 
1 0.5 0 
0 0.5 0 
0.5 0.25 0 
0.5 0.5 0 
0 0.25 0 
0 0 0 
1 0 0 
1 0.5 0 
0.5 0 0 
1 0.25 0 
0.5 0.25 0 
1 0 0 
1 0.5 0 
1 0.25 0 
0 0 0 
0 0.5 0 
0 0.25 0 

CELLS 4 22
6 0 1 2 3 4 5
6 6 7 8 9 10 11
3 12 13 14
3 15 16 17

CELL_TYPES 4
22
22
21
21

CELL_DATA 4
FIELD FieldData 1
material 1 4 int
0
0
1
2
FIELD FieldData 1
elindex 1 4 int
0
1
2
3
POINT_DATA 18
VECTORS Solution float
-2.8153e+10 -4.97588e+10 0 
-7.2674e+10 3.92832e+10 0 
-7.2674e+10 -4.97588e+10 0 
-5.04135e+10 -5.23776e+09 0 
-7.2674e+10 -5.23776e+09 0 
-5.04135e+10 -4.97588e+10 0 

-2.8153e+10 -4.97588e+10 0 
-2.8153e+10 3.92832e+10 0 
-7.2674e+10 3.92832e+10 0 
-2.8153e+10 -5.23776e+09 0 
-5.04135e+10 3.92832e+10 0 
-5.04135e+10 -5.23776e+09 0 

-2.8153e+10 3.92832e+10 0 
-7.2674e+10 3.92832e+10 0 
-5.04135e+10 3.92832e+10 0 

-2.8153e+10 -4.97588e+10 0 
-7.2674e+10 -4.97588e+10 0 
-5.04135e+10 -4.97588e+10 0 

VECTORS GradSolution float
-3.98208e+10 -3.98208e+10 0 
-3.98208e+10 -3.98208e+10 0 
-3.98208e+10 -3.98208e+10 0 
-3.98208e+10 -3.98208e+10 0 
-3.98208e+10 -3.98208e+10 0 
-3.98208e+10 -3.98208e+10 0 
0 0 0 
0 0 0 
0 0 0 
0 0 0 
0 0 0 
0 0 0 
-8.9042e+10 0 0 
-8.9042e+10 0 0 
-8.9042e+10 0 0 
-8.9042e+10 0 0 
-8.9042e+10 0 0 
-8.9042e+10 0 0 
