# vtk DataFile Version 3.0
TPZGeoMesh VTK Visualization
ASCII

DATASET UNSTRUCTURED_GRID
POINTS 22 float
0 0 0 
0.25 0 0 
0.25 0.25 0 
0 0.25 0 
0.125 0 0 
0.25 0.125 0 
0.125 0.25 0 
0 0.125 0 
0.25 0 0 
0.5 0 0 
0.5 0.25 0 
0.25 0.25 0 
0.375 0 0 
0.5 0.125 0 
0.375 0.25 0 
0.25 0.125 0 
0.5 0 0 
0.5 0.25 0 
0.5 0.125 0 
0 0 0 
0 0.25 0 
0 0.125 0 

CELLS 4 26
8 0 1 2 3 4 5 6 7
8 8 9 10 11 12 13 14 15
3 16 17 18
3 19 20 21

CELL_TYPES 4
23
23
21
21

CELL_DATA 4
FIELD FieldData 1
material 1 4 int
1
1
2
3
FIELD FieldData 1
elindex 1 4 int
0
1
2
3
POINT_DATA 22
VECTORS Solution float
1.05651e-298 2.84505e-299 0 
2.45295e-06 -1.18802e-07 0 
2.45295e-06 1.18802e-07 0 
1.05651e-298 -2.84505e-299 0 
1.38206e-06 4.75571e-07 0 
3.032e-06 -1.3008e-20 0 
1.38206e-06 -4.75571e-07 0 
9.3253e-299 2.04307e-313 0 

2.45295e-06 -1.18802e-07 0 
7.23474e-06 -2.86687e-07 0 
7.23474e-06 2.86687e-07 0 
2.45295e-06 1.18802e-07 0 
4.66396e-06 1.00402e-06 0 
6.0577e-06 -6.26625e-20 0 
4.66396e-06 -1.00402e-06 0 
3.032e-06 -1.3008e-20 0 

7.23474e-06 -2.86687e-07 0 
7.23474e-06 2.86687e-07 0 
6.0577e-06 -6.26625e-20 0 

1.05651e-298 2.84505e-299 0 
1.05651e-298 -2.84505e-299 0 
9.3253e-299 2.04307e-313 0 

VECTORS GradSolution float
1.23012e-05 -2.27604e-298 0 
7.32244e-06 9.50418e-07 0 
7.32244e-06 9.50418e-07 0 
1.23012e-05 -2.27604e-298 0 
9.81181e-06 -3.80457e-06 0 
1.31588e-05 9.50418e-07 0 
9.81181e-06 -3.80457e-06 0 
1.10972e-05 -2.27604e-298 0 
1.62489e-05 9.50418e-07 0 
2.20053e-05 2.29349e-06 0 
2.20053e-05 2.29349e-06 0 
1.62489e-05 9.50418e-07 0 
1.91271e-05 -8.03219e-06 0 
1.03615e-05 2.29349e-06 0 
1.91271e-05 -8.03219e-06 0 
1.38441e-05 9.50418e-07 0 
0 0 0 
0 0 0 
0 0 0 
0 0 0 
0 0 0 
0 0 0 
