# vtk DataFile Version 3.0
TPZGeoMesh VTK Visualization
ASCII

DATASET UNSTRUCTURED_GRID
POINTS 18 float
0 0 0 
0.5 0.25 0 
0 0.25 0 
0.25 0.125 0 
0.25 0.25 0 
0 0.125 0 
0 0 0 
0.5 0 0 
0.5 0.25 0 
0.25 0 0 
0.5 0.125 0 
0.25 0.125 0 
0.5 0 0 
0.5 0.25 0 
0.5 0.125 0 
0 0 0 
0 0.25 0 
0 0.125 0 

CELLS 4 22
6 0 1 2 3 4 5
6 6 7 8 9 10 11
3 12 13 14
3 15 16 17

CELL_TYPES 4
22
22
21
21

CELL_DATA 4
FIELD FieldData 1
material 1 4 int
1
1
2
3
FIELD FieldData 1
elindex 1 4 int
0
1
2
3
POINT_DATA 18
VECTORS Solution float
1.24994e-298 7.1308e-299 0 
7.04486e-06 -2.56659e-07 0 
1.24994e-298 -7.35071e-299 0 
3.40475e-06 1.44207e-07 0 
3.35154e-06 -3.71525e-07 0 
1.06253e-298 5.49778e-301 0 

1.24994e-298 7.1308e-299 0 
7.0501e-06 8.43087e-07 0 
7.04486e-06 -2.56659e-07 0 
3.57466e-06 6.7335e-07 0 
7.01815e-06 3.02261e-07 0 
3.40475e-06 1.44207e-07 0 

7.0501e-06 8.43087e-07 0 
7.04486e-06 -2.56659e-07 0 
7.01815e-06 3.02261e-07 0 

1.24994e-298 7.1308e-299 0 
1.24994e-298 -7.35071e-299 0 
1.06253e-298 5.49778e-301 0 

VECTORS GradSolution float
1.31483e-05 -9.25357e-23 0 
1.54569e-05 -8.25172e-06 0 
1.27226e-05 1.36496e-22 0 
1.43026e-05 -4.12586e-06 0 
1.40897e-05 -4.12586e-06 0 
1.29354e-05 2.19799e-23 0 
1.44971e-05 -4.0673e-06 0 
1.37033e-05 -4.25423e-06 0 
1.4807e-05 -4.54373e-06 0 
1.41002e-05 -4.16077e-06 0 
1.42551e-05 -4.39898e-06 0 
1.4652e-05 -4.30552e-06 0 
0 0 0 
0 0 0 
0 0 0 
0 0 0 
0 0 0 
0 0 0 
