# vtk DataFile Version 3.0
TPZGeoMesh VTK Visualization
ASCII

DATASET UNSTRUCTURED_GRID
POINTS 18 float
0 0 0 
0.5 0.25 0 
0 0.25 0 
0.25 0.125 0 
0.25 0.25 0 
0 0.125 0 
0 0 0 
0.5 0 0 
0.5 0.25 0 
0.25 0 0 
0.5 0.125 0 
0.25 0.125 0 
0.5 0 0 
0.5 0.25 0 
0.5 0.125 0 
0 0 0 
0 0.25 0 
0 0.125 0 

CELLS 4 22
6 0 1 2 3 4 5
6 6 7 8 9 10 11
3 12 13 14
3 15 16 17

CELL_TYPES 4
22
22
21
21

CELL_DATA 4
FIELD FieldData 1
material 1 4 int
0
0
1
2
FIELD FieldData 1
elindex 1 4 int
0
1
2
3
POINT_DATA 18
VECTORS Solution float
5.21502e-308 3.13152e-308 0 
6.53122e-06 4.46071e-08 0 
5.21502e-308 -3.13152e-308 0 
3.26561e-06 2.23036e-08 0 
3.26561e-06 2.23036e-08 0 
5.21502e-308 -9.88131e-324 0 

5.21502e-308 3.13152e-308 0 
7.11112e-06 1.11518e-06 0 
6.53122e-06 4.46071e-08 0 
3.55556e-06 5.57589e-07 0 
6.82117e-06 5.79892e-07 0 
3.26561e-06 2.23036e-08 0 

7.11112e-06 1.11518e-06 0 
6.53122e-06 4.46071e-08 0 
6.82117e-06 5.79892e-07 0 

5.21502e-308 3.13152e-308 0 
5.21502e-308 -3.13152e-308 0 
5.21502e-308 -9.88131e-324 0 

VECTORS GradSolution float
1.30624e-05 -7.25112e-22 0 
1.30624e-05 -7.25112e-22 0 
1.30624e-05 -7.25112e-22 0 
1.30624e-05 -7.25112e-22 0 
1.30624e-05 -7.25112e-22 0 
1.30624e-05 -7.25112e-22 0 
1.42222e-05 -2.31957e-06 0 
1.42222e-05 -2.31957e-06 0 
1.42222e-05 -2.31957e-06 0 
1.42222e-05 -2.31957e-06 0 
1.42222e-05 -2.31957e-06 0 
1.42222e-05 -2.31957e-06 0 
0 0 0 
0 0 0 
0 0 0 
0 0 0 
0 0 0 
0 0 0 
