# vtk DataFile Version 3.0
TPZGeoMesh VTK Visualization
ASCII

DATASET UNSTRUCTURED_GRID
POINTS 1860 float
30 0 0 
29.7206 4.085 0 
29.8603 2.0425 0 
29.7206 4.085 0 
28.8875 8.0939 0 
29.304 6.08945 0 
28.8875 8.0939 0 
27.5163 11.952 0 
28.2019 10.023 0 
27.5163 11.952 0 
25.6326 15.5875 0 
26.5745 13.7698 0 
25.6326 15.5875 0 
23.2713 18.9326 0 
24.452 17.2601 0 
23.2713 18.9326 0 
20.4766 21.9251 0 
21.874 20.4289 0 
20.4766 21.9251 0 
17.3004 24.5091 0 
18.8885 23.2171 0 
17.3004 24.5091 0 
13.802 26.6366 0 
15.5512 25.5728 0 
13.802 26.6366 0 
10.0464 28.2678 0 
11.9242 27.4522 0 
10.0464 28.2678 0 
6.10368 29.3725 0 
8.07503 28.8202 0 
6.10368 29.3725 0 
2.04727 29.9301 0 
4.07548 29.6513 0 
2.04727 29.9301 0 
-2.04727 29.9301 0 
-2.79776e-14 29.9301 0 
-2.04727 29.9301 0 
-6.10368 29.3725 0 
-4.07548 29.6513 0 
-6.10368 29.3725 0 
-10.0464 28.2678 0 
-8.07503 28.8202 0 
-10.0464 28.2678 0 
-13.802 26.6366 0 
-11.9242 27.4522 0 
-13.802 26.6366 0 
-17.3004 24.5091 0 
-15.5512 25.5728 0 
-17.3004 24.5091 0 
-20.4766 21.9251 0 
-18.8885 23.2171 0 
-20.4766 21.9251 0 
-23.2713 18.9326 0 
-21.874 20.4289 0 
-23.2713 18.9326 0 
-25.6326 15.5875 0 
-24.452 17.2601 0 
-25.6326 15.5875 0 
-27.5163 11.952 0 
-26.5745 13.7698 0 
-27.5163 11.952 0 
-28.8875 8.0939 0 
-28.2019 10.023 0 
-28.8875 8.0939 0 
-29.7206 4.085 0 
-29.304 6.08945 0 
-29.7206 4.085 0 
-30 -1.29553e-13 0 
-29.8603 2.0425 0 
-30 -1.29553e-13 0 
-29.7206 -4.085 0 
-29.8603 -2.0425 0 
-29.7206 -4.085 0 
-28.8875 -8.0939 0 
-29.304 -6.08945 0 
-28.8875 -8.0939 0 
-27.5163 -11.952 0 
-28.2019 -10.023 0 
-27.5163 -11.952 0 
-25.6326 -15.5875 0 
-26.5745 -13.7698 0 
-25.6326 -15.5875 0 
-23.2713 -18.9326 0 
-24.452 -17.2601 0 
-23.2713 -18.9326 0 
-20.4766 -21.9251 0 
-21.874 -20.4289 0 
-20.4766 -21.9251 0 
-17.3004 -24.5091 0 
-18.8885 -23.2171 0 
-17.3004 -24.5091 0 
-13.802 -26.6366 0 
-15.5512 -25.5728 0 
-13.802 -26.6366 0 
-10.0464 -28.2678 0 
-11.9242 -27.4522 0 
-10.0464 -28.2678 0 
-6.10368 -29.3725 0 
-8.07503 -28.8202 0 
-6.10368 -29.3725 0 
-2.04727 -29.9301 0 
-4.07548 -29.6513 0 
-2.04727 -29.9301 0 
2.04727 -29.9301 0 
2.73559e-13 -29.9301 0 
2.04727 -29.9301 0 
6.10368 -29.3725 0 
4.07548 -29.6513 0 
6.10368 -29.3725 0 
10.0464 -28.2678 0 
8.07503 -28.8202 0 
10.0464 -28.2678 0 
13.802 -26.6366 0 
11.9242 -27.4522 0 
13.802 -26.6366 0 
17.3004 -24.5091 0 
15.5512 -25.5728 0 
17.3004 -24.5091 0 
20.4766 -21.9251 0 
18.8885 -23.2171 0 
20.4766 -21.9251 0 
23.2713 -18.9326 0 
21.874 -20.4289 0 
23.2713 -18.9326 0 
25.6326 -15.5875 0 
24.452 -17.2601 0 
25.6326 -15.5875 0 
27.5163 -11.952 0 
26.5745 -13.7698 0 
27.5163 -11.952 0 
28.8875 -8.0939 0 
28.2019 -10.023 0 
28.8875 -8.0939 0 
29.7206 -4.085 0 
29.304 -6.08945 0 
29.7206 -4.085 0 
30 0 0 
29.8603 -2.0425 0 
20 0 0 
19.563 4.15823 0 
19.7815 2.07912 0 
19.563 4.15823 0 
18.2709 8.13473 0 
18.9169 6.14648 0 
18.2709 8.13473 0 
16.1803 11.7557 0 
17.2256 9.94522 0 
16.1803 11.7557 0 
13.3826 14.8629 0 
14.7815 13.3093 0 
13.3826 14.8629 0 
10 17.3205 0 
11.6913 16.0917 0 
10 17.3205 0 
6.18034 19.0211 0 
8.09017 18.1708 0 
6.18034 19.0211 0 
2.09057 19.8904 0 
4.13545 19.4558 0 
2.09057 19.8904 0 
-2.09057 19.8904 0 
-7.79377e-14 19.8904 0 
-2.09057 19.8904 0 
-6.18034 19.0211 0 
-4.13545 19.4558 0 
-6.18034 19.0211 0 
-10 17.3205 0 
-8.09017 18.1708 0 
-10 17.3205 0 
-13.3826 14.8629 0 
-11.6913 16.0917 0 
-13.3826 14.8629 0 
-16.1803 11.7557 0 
-14.7815 13.3093 0 
-16.1803 11.7557 0 
-18.2709 8.13473 0 
-17.2256 9.94522 0 
-18.2709 8.13473 0 
-19.563 4.15823 0 
-18.9169 6.14648 0 
-19.563 4.15823 0 
-20 -1.75186e-13 0 
-19.7815 2.07912 0 
-20 -1.75186e-13 0 
-19.563 -4.15823 0 
-19.7815 -2.07912 0 
-19.563 -4.15823 0 
-18.2709 -8.13473 0 
-18.9169 -6.14648 0 
-18.2709 -8.13473 0 
-16.1803 -11.7557 0 
-17.2256 -9.94522 0 
-16.1803 -11.7557 0 
-13.3826 -14.8629 0 
-14.7815 -13.3093 0 
-13.3826 -14.8629 0 
-10 -17.3205 0 
-11.6913 -16.0917 0 
-10 -17.3205 0 
-6.18034 -19.0211 0 
-8.09017 -18.1708 0 
-6.18034 -19.0211 0 
-2.09057 -19.8904 0 
-4.13545 -19.4558 0 
-2.09057 -19.8904 0 
2.09057 -19.8904 0 
1.28342e-13 -19.8904 0 
2.09057 -19.8904 0 
6.18034 -19.0211 0 
4.13545 -19.4558 0 
6.18034 -19.0211 0 
10 -17.3205 0 
8.09017 -18.1708 0 
10 -17.3205 0 
13.3826 -14.8629 0 
11.6913 -16.0917 0 
13.3826 -14.8629 0 
16.1803 -11.7557 0 
14.7815 -13.3093 0 
16.1803 -11.7557 0 
18.2709 -8.13473 0 
17.2256 -9.94522 0 
18.2709 -8.13473 0 
19.563 -4.15823 0 
18.9169 -6.14648 0 
19.563 -4.15823 0 
20 0 0 
19.7815 -2.07912 0 
30 0 0 
26.8741 0.974988 0 
29.7206 -4.085 0 
28.4371 0.487494 0 
28.2973 -1.55501 0 
29.8603 -2.0425 0 
-26.8741 -0.974988 0 
-29.7206 4.085 0 
-30 -1.29553e-13 0 
-28.2973 1.55501 0 
-29.8603 2.0425 0 
-28.4371 -0.487494 0 
28.8875 8.0939 0 
27.5163 11.952 0 
26.1303 6.31847 0 
28.2019 10.023 0 
26.8233 9.13525 0 
27.5089 7.20619 0 
-27.5163 11.952 0 
-28.8875 8.0939 0 
-24.8123 11.1363 0 
-28.2019 10.023 0 
-26.8499 9.61513 0 
-26.1643 11.5442 0 
24.8123 -11.1363 0 
27.5163 -11.952 0 
28.8875 -8.0939 0 
26.1643 -11.5442 0 
28.2019 -10.023 0 
26.8499 -9.61513 0 
-27.5163 -11.952 0 
-24.2598 -11.5862 0 
-28.8875 -8.0939 0 
-25.8881 -11.7691 0 
-26.5737 -9.84006 0 
-28.2019 -10.023 0 
-23.2713 -18.9326 0 
-20.4766 -21.9251 0 
-21.4345 -16.212 0 
-21.874 -20.4289 0 
-20.9555 -19.0686 0 
-22.3529 -17.5723 0 
-23.2713 18.9326 0 
-21.4345 16.212 0 
-20.4766 21.9251 0 
-22.3529 17.5723 0 
-20.9555 19.0686 0 
-21.874 20.4289 0 
20.4766 -21.9251 0 
23.2713 -18.9326 0 
17.6408 -20.2764 0 
21.874 -20.4289 0 
20.4561 -19.6045 0 
19.0587 -21.1007 0 
20.4766 21.9251 0 
17.6408 20.2764 0 
23.2713 18.9326 0 
19.0587 21.1007 0 
20.4561 19.6045 0 
21.874 20.4289 0 
-21.4345 -16.212 0 
-20.4766 -21.9251 0 
-18.6189 -17.9483 0 
-20.9555 -19.0686 0 
-19.5477 -19.9367 0 
-20.0267 -17.0801 0 
-21.4345 16.212 0 
-18.6189 17.9483 0 
-20.4766 21.9251 0 
-20.0267 17.0801 0 
-19.5477 19.9367 0 
-20.9555 19.0686 0 
17.6408 -20.2764 0 
23.2713 -18.9326 0 
19.1778 -17.3498 0 
20.4561 -19.6045 0 
21.2246 -18.1412 0 
18.4093 -18.8131 0 
17.6408 20.2764 0 
19.1778 17.3498 0 
23.2713 18.9326 0 
18.4093 18.8131 0 
21.2246 18.1412 0 
20.4561 19.6045 0 
26.1303 6.31847 0 
27.5163 11.952 0 
24.2263 9.04431 0 
26.8233 9.13525 0 
25.8713 10.4982 0 
25.1783 7.68139 0 
23.8795 -7.88488 0 
24.8123 -11.1363 0 
28.8875 -8.0939 0 
24.3459 -9.51061 0 
26.8499 -9.61513 0 
26.3835 -7.98939 0 
-24.8123 11.1363 0 
-28.8875 8.0939 0 
-23.8795 7.88488 0 
-26.8499 9.61513 0 
-26.3835 7.98939 0 
-24.3459 9.51061 0 
-24.2598 -11.5862 0 
-24.5005 -8.27268 0 
-28.8875 -8.0939 0 
-24.3802 -9.92945 0 
-26.694 -8.18329 0 
-26.5737 -9.84006 0 
26.8741 0.974988 0 
25.7275 -2.43029 0 
29.7206 -4.085 0 
26.3008 -0.727652 0 
27.724 -3.25765 0 
28.2973 -1.55501 0 
-25.7275 2.43029 0 
-29.7206 4.085 0 
-26.8741 -0.974988 0 
-27.724 3.25765 0 
-28.2973 1.55501 0 
-26.3008 0.727652 0 
-20.4766 -21.9251 0 
-17.4676 -20.4297 0 
-18.6189 -17.9483 0 
-18.9721 -21.1774 0 
-18.0432 -19.189 0 
-19.5477 -19.9367 0 
-20.4766 21.9251 0 
-18.6189 17.9483 0 
-17.4676 20.4297 0 
-19.5477 19.9367 0 
-18.0432 19.189 0 
-18.9721 21.1774 0 
23.2713 -18.9326 0 
21.5741 -16.0296 0 
19.1778 -17.3498 0 
22.4227 -17.4811 0 
20.3759 -16.6897 0 
21.2246 -18.1412 0 
23.2713 18.9326 0 
19.1778 17.3498 0 
21.5741 16.0296 0 
21.2246 18.1412 0 
20.3759 16.6897 0 
22.4227 17.4811 0 
27.5163 11.952 0 
24.1894 11.7285 0 
24.2263 9.04431 0 
25.8529 11.8403 0 
24.2078 10.3864 0 
25.8713 10.4982 0 
-28.8875 -8.0939 0 
-24.5005 -8.27268 0 
-26.1637 -6.1644 0 
-26.694 -8.18329 0 
-25.3321 -7.21854 0 
-27.5256 -7.12915 0 
2.09057 -19.8904 0 
-1.73472 -23.224 0 
2.42018 -23.3943 0 
0.177926 -21.5572 0 
0.342731 -23.3092 0 
2.25537 -21.6424 0 
2.09057 19.8904 0 
2.42018 23.3943 0 
-1.73471 23.224 0 
2.25538 21.6424 0 
0.342739 23.3092 0 
0.177931 21.5572 0 
-2.09057 -19.8904 0 
-1.73472 -23.224 0 
2.09057 -19.8904 0 
-1.91264 -21.5572 0 
0.177926 -21.5572 0 
1.28342e-13 -19.8904 0 
-2.09057 19.8904 0 
2.09057 19.8904 0 
-1.73471 23.224 0 
-7.79377e-14 19.8904 0 
0.177931 21.5572 0 
-1.91264 21.5572 0 
-20 -1.75186e-13 0 
-22.7696 3.7082 0 
-23.2765 -1.14595 0 
-21.3848 1.8541 0 
-23.023 1.28113 0 
-21.6382 -0.572976 0 
20 0 0 
22.7696 -3.7082 0 
23.2765 1.14595 0 
21.3848 -1.8541 0 
23.023 -1.28113 0 
21.6382 0.572976 0 
28.8875 -8.0939 0 
26.1871 -5.38231 0 
23.8795 -7.88488 0 
27.5373 -6.73811 0 
25.0333 -6.6336 0 
26.3835 -7.98939 0 
-28.8875 8.0939 0 
-26.1871 5.38231 0 
-23.8795 7.88488 0 
-27.5373 6.73811 0 
-25.0333 6.6336 0 
-26.3835 7.98939 0 
2.09057 -19.8904 0 
2.42018 -23.3943 0 
6.61185 -22.2786 0 
2.25537 -21.6424 0 
4.51601 -22.8365 0 
4.35121 -21.0845 0 
2.09057 19.8904 0 
6.6119 22.2786 0 
2.42018 23.3943 0 
4.35124 21.0845 0 
4.51604 22.8365 0 
2.25538 21.6424 0 
-2.09057 -19.8904 0 
-6.61019 -22.2804 0 
-1.73472 -23.224 0 
-4.35038 -21.0854 0 
-4.17245 -22.7522 0 
-1.91264 -21.5572 0 
-2.09057 19.8904 0 
-1.73471 23.224 0 
-6.61012 22.2804 0 
-1.91264 21.5572 0 
-4.17241 22.7522 0 
-4.35034 21.0854 0 
29.7206 -4.085 0 
25.7275 -2.43029 0 
26.1871 -5.38231 0 
27.724 -3.25765 0 
25.9573 -3.9063 0 
27.9538 -4.73366 0 
-29.7206 4.085 0 
-25.7275 2.43029 0 
-26.1871 5.38231 0 
-27.724 3.25765 0 
-25.9573 3.9063 0 
-27.9538 4.73366 0 
6.18034 -19.0211 0 
2.09057 -19.8904 0 
6.61185 -22.2786 0 
4.13545 -19.4558 0 
4.35121 -21.0845 0 
6.39609 -20.6499 0 
6.18034 19.0211 0 
6.6119 22.2786 0 
2.09057 19.8904 0 
6.39612 20.6499 0 
4.35124 21.0845 0 
4.13545 19.4558 0 
-2.09057 -19.8904 0 
[...]
CELL_DATA 348
FIELD FieldData 1
material 1 348 int
3
3
3
3
3
3
3
3
3
3
3
3
3
3
3
3
3
3
3
3
3
3
3
3
3
3
3
3
3
3
3
3
3
3
3
3
3
3
3
3
3
3
3
3
3
3
2
2
2
2
2
2
2
2
2
2
2
2
2
2
2
2
2
2
2
2
2
2
2
2
2
2
2
2
2
2
1
1
1
1
1
1
1
1
1
1
1
1
1
1
1
1
1
1
1
1
1
1
1
1
1
1
1
1
1
1
1
1
1
1
1
1
1
1
1
1
1
1
1
1
1
1
1
1
1
1
1
1
1
1
1
1
1
1
1
1
1
1
1
1
1
1
1
1
1
1
1
1
1
1
1
1
1
1
1
1
1
1
1
1
1
1
1
1
1
1
1
1
1
1
1
1
1
1
1
1
1
1
1
1
1
1
1
1
1
1
1
1
1
1
1
1
1
1
1
1
1
1
1
1
1
1
1
1
1
1
1
1
1
1
1
1
1
1
1
1
1
1
1
1
1
1
1
1
1
1
1
1
1
1
1
1
1
1
1
1
1
1
1
1
1
1
1
1
1
1
1
1
1
1
1
1
1
1
1
1
1
1
1
1
1
1
1
1
1
1
1
1
1
1
1
1
1
1
1
1
1
1
1
1
1
1
1
1
1
1
1
1
1
1
1
1
1
1
1
1
1
1
1
1
1
1
1
1
1
1
1
1
1
1
1
1
1
1
1
1
1
1
1
1
1
1
1
1
1
1
1
1
1
1
1
1
1
1
1
1
1
1
1
1
1
1
1
1
1
1
1
1
FIELD FieldData 1
elindex 1 348 int
0
1
2
3
4
5
6
7
8
9
10
11
12
13
14
15
16
17
18
19
20
21
22
23
24
25
26
27
28
29
30
31
32
33
34
35
36
37
38
39
40
41
42
43
44
45
46
47
48
49
50
51
52
53
54
55
56
57
58
59
60
61
62
63
64
65
66
67
68
69
70
71
72
73
74
75
76
77
78
79
80
81
82
83
84
85
86
87
88
89
90
91
92
93
94
95
96
97
98
99
100
101
102
103
104
105
106
107
108
109
110
111
112
113
114
115
116
117
118
119
120
121
122
123
124
125
126
127
128
129
130
131
132
133
134
135
136
137
138
139
140
141
142
143
144
145
146
147
148
149
150
151
152
153
154
155
156
157
158
159
160
161
162
163
164
165
166
167
168
169
170
171
172
173
174
175
176
177
178
179
180
181
182
183
184
185
186
187
188
189
190
191
192
193
194
195
196
197
198
199
200
201
202
203
204
205
206
207
208
209
210
211
212
213
214
215
216
217
218
219
220
221
222
223
224
225
226
227
228
229
230
231
232
233
234
235
236
237
238
239
240
241
242
243
244
245
246
247
248
249
250
251
252
253
254
255
256
257
258
259
260
261
262
263
264
265
266
267
268
269
270
271
272
273
274
275
276
277
278
279
280
281
282
283
284
285
286
287
288
289
290
291
292
293
294
295
296
297
298
299
300
301
302
303
304
305
306
307
308
309
310
311
312
313
314
315
316
317
318
319
320
321
322
323
324
325
326
327
328
329
330
331
332
333
334
335
336
337
338
339
340
341
342
343
344
345
346
347
POINT_DATA 1860
VECTORS Solution float
-0.00453696 0.00397 0 
-0.00479739 0.0035438 0 
-0.00466717 0.0037569 0 

-0.00479739 0.0035438 0 
-0.00457872 0.00318696 0 
-0.00468805 0.00336538 0 

-0.00457872 0.00318696 0 
-0.00463467 0.00269432 0 
-0.00460669 0.00294064 0 

-0.00463467 0.00269432 0 
-0.00459143 0.0022752 0 
-0.00461305 0.00248476 0 

-0.00459143 0.0022752 0 
-0.00443797 0.00192148 0 
-0.0045147 0.00209834 0 

-0.00443797 0.00192148 0 
-0.00419456 0.001594 0 
-0.00431626 0.00175774 0 

-0.00419456 0.001594 0 
-0.0042246 0.00103202 0 
-0.00420958 0.00131301 0 

-0.0042246 0.00103202 0 
-0.00398019 0.000774992 0 
-0.0041024 0.000903508 0 

-0.00398019 0.000774992 0 
-0.0035019 0.000311609 0 
-0.00374105 0.000543301 0 

-0.0035019 0.000311609 0 
-0.00327173 -9.5897e-05 0 
-0.00338681 0.000107856 0 

-0.00327173 -9.5897e-05 0 
-0.00300876 -0.000199807 0 
-0.00314024 -0.000147852 0 

-0.00300876 -0.000199807 0 
-0.00244006 -0.000561032 0 
-0.00272441 -0.000380419 0 

-0.00244006 -0.000561032 0 
-0.00202474 -0.00100898 0 
-0.0022324 -0.000785007 0 

-0.00202474 -0.00100898 0 
-0.0016739 -0.00101261 0 
-0.00184932 -0.0010108 0 

-0.0016739 -0.00101261 0 
-0.00100666 -0.00103654 0 
-0.00134028 -0.00102458 0 

-0.00100666 -0.00103654 0 
-0.000487383 -0.00124025 0 
-0.00074702 -0.0011384 0 

-0.000487383 -0.00124025 0 
-4.16095e-05 -0.00120456 0 
-0.000264496 -0.00122241 0 

-4.16095e-05 -0.00120456 0 
0.000408395 -0.00102682 0 
0.000183393 -0.00111569 0 

0.000408395 -0.00102682 0 
0.00112991 -0.00107988 0 
0.000769152 -0.00105335 0 

0.00112991 -0.00107988 0 
0.00141618 -0.000647878 0 
0.00127304 -0.000863881 0 

0.00141618 -0.000647878 0 
0.00191122 -0.000276381 0 
0.0016637 -0.00046213 0 

0.00191122 -0.000276381 0 
0.00229138 0.000160471 0 
0.0021013 -5.79551e-05 0 

0.00229138 0.000160471 0 
0.00216999 0.000683449 0 
0.00223068 0.00042196 0 

0.00216999 0.000683449 0 
0.00241146 0.0011117 0 
0.00229072 0.000897577 0 

0.00241146 0.0011117 0 
0.0023149 0.001505 0 
0.00236318 0.00130835 0 

0.0023149 0.001505 0 
0.00212878 0.0018924 0 
0.00222184 0.0016987 0 

0.00212878 0.0018924 0 
0.00226248 0.00236835 0 
0.00219563 0.00213037 0 

0.00226248 0.00236835 0 
0.00201362 0.00263406 0 
0.00213805 0.0025012 0 

0.00201362 0.00263406 0 
0.00195887 0.00316363 0 
0.00198625 0.00289884 0 

0.00195887 0.00316363 0 
0.00185789 0.00361014 0 
0.00190838 0.00338688 0 

0.00185789 0.00361014 0 
0.00162239 0.00386666 0 
0.00174014 0.0037384 0 

0.00162239 0.00386666 0 
0.00117162 0.00433772 0 
0.001397 0.00410219 0 

0.00117162 0.00433772 0 
0.000966672 0.00485432 0 
0.00106915 0.00459602 0 

0.000966672 0.00485432 0 
0.000624718 0.00494142 0 
0.000795695 0.00489787 0 

0.000624718 0.00494142 0 
5.56481e-05 0.00511992 0 
0.000340183 0.00503067 0 

5.56481e-05 0.00511992 0 
-0.000281245 0.00555048 0 
-0.000112798 0.0053352 0 

-0.000281245 0.00555048 0 
-0.000657689 0.00566199 0 
-0.000469467 0.00560623 0 

-0.000657689 0.00566199 0 
-0.0013528 0.0056917 0 
-0.00100524 0.00567684 0 

-0.0013528 0.0056917 0 
-0.00188119 0.00589247 0 
-0.00161699 0.00579209 0 

-0.00188119 0.00589247 0 
-0.00219308 0.00573305 0 
-0.00203713 0.00581276 0 

-0.00219308 0.00573305 0 
-0.00283013 0.00575434 0 
-0.00251161 0.0057437 0 

-0.00283013 0.00575434 0 
-0.00344879 0.00571953 0 
-0.00313946 0.00573693 0 

-0.00344879 0.00571953 0 
-0.00375772 0.0052963 0 
-0.00360326 0.00550792 0 

-0.00375772 0.0052963 0 
-0.00426307 0.00492609 0 
-0.0040104 0.0051112 0 

-0.00426307 0.00492609 0 
-0.00464911 0.00449122 0 
-0.00445609 0.00470866 0 

-0.00464911 0.00449122 0 
-0.00453696 0.00397 0 
-0.00459303 0.00423061 0 

0.0152598 0.00402901 0 
0.0147731 0.00743368 0 
0.0150164 0.00573134 0 

0.0147731 0.00743368 0 
0.013624 0.0106907 0 
0.0141985 0.00906217 0 

0.013624 0.0106907 0 
0.011839 0.0136192 0 
0.0127315 0.0121549 0 

0.011839 0.0136192 0 
0.00934468 0.0160211 0 
0.0105918 0.0148202 0 

0.00934468 0.0160211 0 
0.00638617 0.0178086 0 
0.00786543 0.0169149 0 

0.00638617 0.0178086 0 
0.00315463 0.019002 0 
0.0047704 0.0184053 0 

0.00315463 0.019002 0 
-0.000327912 0.0191664 0 
0.00141336 0.0190842 0 

-0.000327912 0.0191664 0 
-0.00371782 0.0190896 0 
-0.00202287 0.019128 0 

-0.00371782 0.0190896 0 
-0.00711062 0.0182558 0 
-0.00541422 0.0186727 0 

-0.00711062 0.0182558 0 
-0.0101486 0.0165287 0 
-0.00862959 0.0173922 0 

-0.0101486 0.0165287 0 
-0.0127496 0.0142692 0 
-0.0114491 0.0153989 0 

-0.0127496 0.0142692 0 
-0.0148234 0.0114848 0 
-0.0137865 0.012877 0 

-0.0148234 0.0114848 0 
-0.0165379 0.00836245 0 
-0.0156807 0.00992363 0 

-0.0165379 0.00836245 0 
-0.0176262 0.00422311 0 
-0.0170821 0.00629278 0 

-0.0176262 0.00422311 0 
-0.0176229 0.000603605 0 
-0.0176246 0.00241336 0 

-0.0176229 0.000603605 0 
-0.0172076 -0.00280481 0 
-0.0174153 -0.0011006 0 

-0.0172076 -0.00280481 0 
-0.016017 -0.0060343 0 
-0.0166123 -0.00441956 0 

-0.016017 -0.0060343 0 
-0.0141111 -0.00892043 0 
-0.0150641 -0.00747736 0 

-0.0141111 -0.00892043 0 
-0.0116629 -0.0113658 0 
-0.012887 -0.0101431 0 

-0.0116629 -0.0113658 0 
-0.00874535 -0.0131923 0 
-0.0102041 -0.012279 0 

-0.00874535 -0.0131923 0 
-0.00548421 -0.0144193 0 
-0.00711478 -0.0138058 0 

-0.00548421 -0.0144193 0 
-0.00197659 -0.0147146 0 
-0.0037304 -0.0145669 0 

-0.00197659 -0.0147146 0 
0.00141368 -0.0142408 0 
-0.000281457 -0.0144777 0 

0.00141368 -0.0142408 0 
0.00478258 -0.0135389 0 
0.00309813 -0.0138898 0 

0.00478258 -0.0135389 0 
0.00779255 -0.0118471 0 
0.00628757 -0.012693 0 

0.00779255 -0.0118471 0 
0.010436 -0.00962803 0 
0.00911427 -0.0107376 0 

0.010436 -0.00962803 0 
0.0125355 -0.00688437 0 
0.0114857 -0.0082562 0 

0.0125355 -0.00688437 0 
0.0141843 -0.00373061 0 
0.0133599 -0.00530749 0 

0.0141843 -0.00373061 0 
0.0152679 0.000411391 0 
0.0147261 -0.00165961 0 

0.0152679 0.000411391 0 
0.0152598 0.00402901 0 
0.0152638 0.0022202 0 

-0.00453696 0.00397 0 
0.000601354 0.00400335 0 
-0.00464911 0.00449122 0 
-0.0019678 0.00398667 0 
-0.00202388 0.00424729 0 
-0.00459303 0.00423061 0 

-0.00297018 0.000639685 0 
0.00229138 0.000160471 0 
0.00216999 0.000683449 0 
-0.000339399 0.000400078 0 
0.00223068 0.00042196 0 
-0.000400096 0.000661567 0 

-0.00457872 0.00318696 0 
-0.00463467 0.00269432 0 
0.000463183 0.00442179 0 
-0.00460669 0.00294064 0 
-0.00208574 0.00355806 0 
-0.00205777 0.00380437 0 

0.00141618 -0.000647878 0 
0.00191122 -0.000276381 0 
-0.00271923 0.00134003 0 
0.0016637 -0.00046213 0 
-0.000404005 0.000531823 0 
-0.000651528 0.000346075 0 

0.000373241 0.00329847 0 
-0.00375772 0.0052963 0 
-0.00426307 0.00492609 0 
-0.00169224 0.00429739 0 
-0.0040104 0.0051112 0 
-0.00194492 0.00411228 0 

0.00212878 0.0018924 0 
-0.00258704 -0.000183226 0 
0.0023149 0.001505 0 
-0.000229131 0.000854588 0 
-0.00013607 0.000660886 0 
0.00222184 0.0016987 0 

0.00201362 0.00263406 0 
0.00195887 0.00316363 0 
-0.00219655 -0.000482155 0 
0.00198625 0.00289884 0 
-0.000118836 0.00134074 0 
-9.1462e-05 0.00107595 0 

0.000408395 -0.00102682 0 
-0.00343995 0.00233107 0 
-4.16095e-05 -0.00120456 0 
-0.00151578 0.000652122 0 
-0.00174078 0.000563252 0 
0.000183393 -0.00111569 0 

-0.00219308 0.00573305 0 
-0.00283013 0.00575434 0 
0.00115243 0.00164828 0 
-0.00251161 0.0057437 0 
-0.000838854 0.00370131 0 
-0.000520327 0.00369067 0 

-0.00419456 0.001594 0 
-0.00063888 0.00532227 0 
-0.00443797 0.00192148 0 
-0.00241672 0.00345814 0 
-0.00253842 0.00362187 0 
-0.00431626 0.00175774 0 

-0.00219655 -0.000482155 0 
0.00195887 0.00316363 0 
-0.00314518 -0.00177753 0 
-0.000118836 0.00134074 0 
-0.000593155 0.000693049 0 
-0.00267087 -0.00112984 0 

-0.00343995 0.00233107 0 
-0.0046234 0.00396602 0 
-4.16095e-05 -0.00120456 0 
-0.00403168 0.00314854 0 
-0.00233251 0.00138073 0 
-0.00174078 0.000563252 0 

0.00115243 0.00164828 0 
-0.00283013 0.00575434 0 
0.00236205 0.000802257 0 
-0.000838854 0.00370131 0 
-0.000234041 0.0032783 0 
0.00175724 0.00122527 0 

-0.00063888 0.00532227 0 
0.000958496 0.00636951 0 
-0.00443797 0.00192148 0 
0.000159808 0.00584589 0 
-0.00173974 0.00414549 0 
-0.00253842 0.00362187 0 

0.000463183 0.00442179 0 
-0.00463467 0.00269432 0 
0.00193518 0.00527749 0 
-0.00208574 0.00355806 0 
-0.00134975 0.00398591 0 
0.00119918 0.00484964 0 

0.00375526 0.00222225 0 
0.000373241 0.00329847 0 
-0.00426307 0.00492609 0 
0.00206425 0.00276036 0 
-0.00194492 0.00411228 0 
-0.000253907 0.00357417 0 

-0.00271923 0.00134003 0 
0.00191122 -0.000276381 0 
-0.00610576 0.00241807 0 
-0.000404005 0.000531823 0 
-0.00209727 0.00107084 0 
-0.0044125 0.00187905 0 

-0.00258704 -0.000183226 0 
-0.00440441 -0.000503356 0 
0.0023149 0.001505 0 
-0.00349572 -0.000343291 0 
-0.00104476 0.000500821 0 
-0.00013607 0.000660886 0 

0.000601354 0.00400335 0 
0.00242607 0.00351159 0 
-0.00464911 0.00449122 0 
0.00151371 0.00375747 0 
-0.00111152 0.00400141 0 
-0.00202388 0.00424729 0 

-0.00478839 0.00113208 0 
0.00229138 0.000160471 0 
-0.00297018 0.000639685 0 
-0.00124851 0.000646275 0 
-0.000339399 0.000400078 0 
-0.00387929 0.000885882 0 

0.00195887 0.00316363 0 
-0.00168155 -0.000607865 0 
-0.00314518 -0.00177753 0 
0.000138663 0.00127788 0 
-0.00241337 -0.0011927 0 
-0.000593155 0.000693049 0 

-4.16095e-05 -0.00120456 0 
-0.0046234 0.00396602 0 
-0.00349125 0.00295361 0 
-0.00233251 0.00138073 0 
-0.00405733 0.00345981 0 
-0.00176643 0.000874522 0 

-0.00283013 0.00575434 0 
0.00105679 0.00232045 0 
0.00236205 0.000802257 0 
-0.000886671 0.0040374 0 
0.00170942 0.00156136 0 
-0.000234041 0.0032783 0 

-0.00443797 0.00192148 0 
0.000958496 0.00636951 0 
-0.000168838 0.00513262 0 
-0.00173974 0.00414549 0 
0.000394829 0.00575107 0 
-0.0023034 0.00352705 0 

-0.00463467 0.00269432 0 
0.000194271 0.00478801 0 
0.00193518 0.00527749 0 
-0.0022202 0.00374116 0 
0.00106472 0.00503275 0 
-0.00134975 0.00398591 0 

0.0023149 0.001505 0 
-0.00440441 -0.000503356 0 
-0.00282653 0.000199455 0 
-0.00104476 0.000500821 0 
-0.00361547 -0.000151951 0 
-0.000255818 0.000852226 0 

0.00141368 -0.0142408 0 
-0.000731628 -0.00721054 0 
0.000859366 -0.00660461 0 
0.000341024 -0.0107257 0 
6.38688e-05 -0.00690758 0 
0.00113652 -0.0104227 0 

-0.000327912 0.0191664 0 
-0.00134419 0.011574 0 
-0.00291249 0.0116323 0 
-0.000836049 0.0153702 0 
-0.00212834 0.0116031 0 
-0.0016202 0.0153993 0 

-0.00197659 -0.0147146 0 
-0.000731628 -0.00721054 0 
0.00141368 -0.0142408 0 
-0.00135411 -0.0109626 0 
0.000341024 -0.0107257 0 
-0.000281457 -0.0144777 0 

-0.00371782 0.0190896 0 
-0.000327912 0.0191664 0 
-0.00291249 0.0116323 0 
-0.00202287 0.019128 0 
-0.0016202 0.0153993 0 
-0.00331516 0.0153609 0 

-0.0176229 0.000603605 0 
-0.0104075 0.00240028 0 
-0.0100077 0.000367769 0 
-0.0140152 0.00150194 0 
-0.0102076 0.00138403 0 
-0.0138153 0.000485687 0 

0.0152598 0.00402901 0 
0.00804922 0.00223967 0 
0.00764145 0.00427831 0 
0.0116545 0.00313434 0 
0.00784533 0.00325899 0 
0.0114506 0.00415366 0 

-0.00426307 0.00492609 0 
0.000904314 0.00337434 0 
0.00375526 0.00222225 0 
-0.00167938 0.00415022 0 
0.00232979 0.0027983 0 
-0.000253907 0.00357417 0 

0.00191122 -0.000276381 0 
-0.00326004 0.00127052 0 
-0.00610576 0.00241807 0 
-0.000674408 0.00049707 0 
-0.0046829 0.0018443 0 
-0.00209727 0.00107084 0 

0.00141368 -0.0142408 0 
0.000859366 -0.00660461 0 
0.00241156 -0.00645527 0 
0.00113652 -0.0104227 0 
0.00163546 -0.00652994 0 
0.00191262 -0.010348 0 

-0.000327912 0.0191664 0 
0.000354218 0.0119767 0 
-0.00134419 0.011574 0 
1.31532e-05 0.0155715 0 
-0.000494984 0.0117753 0 
-0.000836049 0.0153702 0 

-0.00197659 -0.0147146 0 
-0.00276551 -0.00737151 0 
-0.000731628 -0.00721054 0 
-0.00237105 -0.0110431 0 
-0.00174857 -0.00729103 0 
-0.00135411 -0.0109626 0 

-0.00371782 0.0190896 0 
-0.00291249 0.0116323 0 
-0.00482235 0.0111502 0 
-0.00331516 0.0153609 0 
-0.00386742 0.0113913 0 
-0.00427008 0.0151199 0 

-0.00464911 0.00449122 0 
0.00242607 0.00351159 0 
0.000904314 0.00337434 0 
-0.00111152 0.00400141 0 
0.00166519 0.00344297 0 
-0.0018724 0.00393278 0 

0.00229138 0.000160471 0 
-0.00478839 0.00113208 0 
-0.00326004 0.00127052 0 
-0.00124851 0.000646275 0 
-0.00402422 0.0012013 0 
-0.000484329 0.000715496 0 

0.00478258 -0.0135389 0 
0.00141368 -0.0142408 0 
0.00241156 -0.00645527 0 
0.00309813 -0.0138898 0 
0.00191262 -0.010348 0 
0.00359707 -0.00999706 0 

0.00315463 0.019002 0 
0.000354218 0.0119767 0 
-0.000327912 0.0191664 0 
0.00175442 0.0154893 0 
1.31532e-05 0.0155715 0 
0.00141336 0.0190842 0 

-0.00197659 -0.0147146 0 
-0.00548421 -0.0144193 0 
-0.00276551 -0.00737151 0 
-0.0037304 -0.0145669 0 
-0.00412486 -0.0108954 0 
-0.00237105 -0.0110431 0 

-0.00371782 0.0190896 0 
-0.00482235 0.0111502 0 
-0.00711062 0.0182558 0 
-0.00427008 0.0151199 0 
-0.00596648 0.014703 0 
-0.00541422 0.0186727 0 

0.00478258 -0.0135389 0 
0.00241156 -0.00645527 0 
0.00403422 -0.00530116 0 
0.00359707 -0.00999706 0 
0.00322289 -0.00587822 0 
0.0044084 -0.00942001 0 

0.00315463 0.019002 0 
0.00219262 0.0113866 0 
0.000354218 0.0119767 0 
0.00267362 0.0151943 0 
0.00127342 0.0116816 0 
0.00175442 0.0154893 0 

-0.00548421 -0.0144193 0 
-0.00453901 -0.00672727 0 
-0.00276551 -0.00737151 0 
-0.00501161 -0.0105733 0 
-0.00365226 -0.00704939 0 
-0.00412486 -0.0108954 0 

-0.00711062 0.0182558 0 
-0.00482235 0.0111502 0 
-0.0063803 0.0099421 0 
-0.00596648 0.014703 0 
-0.00560132 0.0105462 0 
-0.00674546 0.0140989 0 

-0.00874535 -0.0131923 0 
-0.00613891 -0.00587162 0 
-0.00453901 -0.00672727 0 
-0.00744213 -0.00953195 0 
-0.00533896 -0.00629944 0 
-0.00664218 -0.00995977 0 

0.00779255 -0.0118471 0 
0.00403422 -0.00530116 0 
0.00537626 -0.00390106 0 
0.00591339 -0.00857414 0 
0.00470524 -0.00460111 0 
0.00658441 -0.00787409 0 

0.00638617 0.0178086 0 
0.0038709 0.0105222 0 
0.00219262 0.0113866 0 
0.00512853 0.0141654 0 
0.00303176 0.0109544 0 
0.0042894 0.0145976 0 

-0.0101486 0.0165287 0 
-0.0063803 0.0099421 0 
-0.00765156 0.00856206 0 
-0.00826443 0.0132354 0 
-0.00701593 0.00925208 0 
-0.00890006 0.0125454 0 

-0.0176262 0.00422311 0 
-0.0104075 0.00240028 0 
-0.0176229 0.000603605 0 
-0.0140168 0.0033117 0 
-0.0140152 0.00150194 0 
-0.0176246 0.00241336 0 

0.0152598 0.00402901 0 
0.0152679 0.000411391 0 
0.00804922 0.00223967 0 
0.0152638 0.0022202 0 
0.0116585 0.00132553 0 
0.0116545 0.00313434 0 

0.00478258 -0.0135389 0 
0.00403422 -0.00530116 0 
0.00779255 -0.0118471 0 
0.0044084 -0.00942001 0 
0.00591339 -0.00857414 0 
0.00628757 -0.012693 0 

0.00315463 0.019002 0 
0.00638617 0.0178086 0 
0.00219262 0.0113866 0 
0.0047704 0.0184053 0 
0.0042894 0.0145976 0 
0.00267362 0.0151943 0 

-0.00874535 -0.0131923 0 
-0.00453901 -0.00672727 0 
-0.00548421 -0.0144193 0 
-0.00664218 -0.00995977 0 
-0.00501161 -0.0105733 0 
-0.00711478 -0.0138058 0 

-0.0101486 0.0165287 0 
-0.00711062 0.0182558 0 
-0.0063803 0.0099421 0 
-0.00862959 0.0173922 0 
-0.00674546 0.0140989 0 
-0.00826443 0.0132354 0 

0.00242607 0.00351159 0 
0.00764145 0.00427831 0 
0.00804922 0.00223967 0 
0.00503376 0.00389495 0 
0.00784533 0.00325899 0 
0.00523764 0.00287563 0 

-0.00478839 0.00113208 0 
-0.0100077 0.000367769 0 
-0.0104075 0.00240028 0 
-0.00739805 0.000749924 0 
-0.0102076 0.00138403 0 
-0.00759794 0.00176618 0 

-0.0141111 -0.00892043 0 
-0.00880496 -0.00322074 0 
-0.00762296 -0.00468911 0 
-0.011458 -0.00607058 0 
-0.00821396 -0.00395493 0 
-0.010867 -0.00680477 0 

0.011839 0.0136192 0 
0.00637712 0.00789979 0 
0.00531048 0.00931245 0 
0.00910806 0.0107595 0 
0.0058438 0.00860612 0 
0.00857474 0.0114658 0 

0.0125355 -0.00688437 0 
0.00643745 -0.00224949 0 
0.00740041 -0.000599614 0 
0.00948646 -0.00456693 0 
0.00691893 -0.00142455 0 
0.00996794 -0.00374199 0 

-0.0148234 0.0114848 0 
-0.00873201 0.00692946 0 
-0.00974596 0.00524176 0 
-0.0117777 0.00920714 0 
-0.00923898 0.00608561 0 
-0.0122847 0.00836329 0 

0.00241146 0.0011117 0 
-0.00282653 0.000199455 0 
-0.00464698 0.000180713 0 
-0.000207538 0.000655579 0 
-0.00373675 0.000190084 0 
-0.00111776 0.000646209 0 

-0.00479739 0.0035438 0 
0.000463183 0.00442179 0 
0.00225711 0.00445238 0 
-0.00216711 0.00398279 0 
0.00136015 0.00443708 0 
-0.00127014 0.00399809 0 

-0.00344879 0.00571953 0 
0.00243351 0.0016153 0 
0.00105679 0.00232045 0 
-0.00050764 0.00366741 0 
0.00174515 0.00196787 0 
-0.001196 0.00401999 0 

0.00226248 0.00236835 0 
-0.00219655 -0.000482155 0 
-0.00387996 -0.00123799 0 
3.29679e-05 0.000943096 0 
-0.00303825 -0.000860071 0 
-0.000808738 0.000565181 0 
