# vtk DataFile Version 3.0
GeoMesh VTK Visualization
ASCII

DATASET UNSTRUCTURED_GRID
POINTS 20 float
0 0 0 
0.25 0 0 
0.125 0 0 
0.25 0 0 
0.25 0.25 0 
0.25 0.125 0 
0.25 0.25 0 
0 0.25 0 
0.125 0.25 0 
0 0.25 0 
0 0 0 
0 0.125 0 
0 0 0 
0.25 0 0 
0.25 0.25 0 
0 0.25 0 
0.125 0 0 
0.25 0.125 0 
0.125 0.25 0 
0 0.125 0 

CELLS 5 25
3 0 1 2
3 3 4 5
3 6 7 8
3 9 10 11
8 12 13 14 15 16 17 18 19

CELL_TYPES 5
21
21
21
21
23

CELL_DATA 5
FIELD FieldData 1
material 1 5 int
3
3
3
2
1
FIELD FieldData 1
elindex 1 5 int
0
1
2
3
4
