# vtk DataFile Version 3.0
GeoMesh VTK Visualization
ASCII

DATASET UNSTRUCTURED_GRID
POINTS 18 float
0 0 0 
0.5 0.25 0 
0 0.25 0 
0.25 0.125 0 
0.25 0.25 0 
0 0.125 0 
0 0 0 
0.5 0 0 
0.5 0.25 0 
0.25 0 0 
0.5 0.125 0 
0.25 0.125 0 
0.5 0 0 
0.5 0.25 0 
0.5 0.125 0 
0 0 0 
0 0.25 0 
0 0.125 0 

CELLS 4 22
6 0 1 2 3 4 5
6 6 7 8 9 10 11
3 12 13 14
3 15 16 17

CELL_TYPES 4
22
22
21
21

CELL_DATA 4
FIELD FieldData 1
material 1 4 int
0
0
1
2
FIELD FieldData 1
elindex 1 4 int
0
1
2
3
