# vtk DataFile Version 3.0
GeoMesh VTK Visualization
ASCII

DATASET UNSTRUCTURED_GRID
POINTS 22 float
0 0 0 
0.25 0 0 
0.25 0.25 0 
0 0.25 0 
0.125 0 0 
0.25 0.125 0 
0.125 0.25 0 
0 0.125 0 
0.25 0 0 
0.5 0 0 
0.5 0.25 0 
0.25 0.25 0 
0.375 0 0 
0.5 0.125 0 
0.375 0.25 0 
0.25 0.125 0 
0.5 0 0 
0.5 0.25 0 
0.5 0.125 0 
0 0 0 
0 0.25 0 
0 0.125 0 

CELLS 4 26
8 0 1 2 3 4 5 6 7
8 8 9 10 11 12 13 14 15
3 16 17 18
3 19 20 21

CELL_TYPES 4
23
23
21
21

CELL_DATA 4
FIELD FieldData 1
material 1 4 int
1
1
2
3
FIELD FieldData 1
elindex 1 4 int
0
1
2
3
