# vtk DataFile Version 3.0
GeoMesh VTK Visualization
ASCII

DATASET UNSTRUCTURED_GRID
POINTS 1860 float
30 0 0 
29.7206 4.085 0 
29.8603 2.0425 0 
29.7206 4.085 0 
28.8875 8.0939 0 
29.304 6.08945 0 
28.8875 8.0939 0 
27.5163 11.952 0 
28.2019 10.023 0 
27.5163 11.952 0 
25.6326 15.5875 0 
26.5745 13.7698 0 
25.6326 15.5875 0 
23.2713 18.9326 0 
24.452 17.2601 0 
23.2713 18.9326 0 
20.4766 21.9251 0 
21.874 20.4289 0 
20.4766 21.9251 0 
17.3004 24.5091 0 
18.8885 23.2171 0 
17.3004 24.5091 0 
13.802 26.6366 0 
15.5512 25.5728 0 
13.802 26.6366 0 
10.0464 28.2678 0 
11.9242 27.4522 0 
10.0464 28.2678 0 
6.10368 29.3725 0 
8.07503 28.8202 0 
6.10368 29.3725 0 
2.04727 29.9301 0 
4.07548 29.6513 0 
2.04727 29.9301 0 
-2.04727 29.9301 0 
-2.79776e-14 29.9301 0 
-2.04727 29.9301 0 
-6.10368 29.3725 0 
-4.07548 29.6513 0 
-6.10368 29.3725 0 
-10.0464 28.2678 0 
-8.07503 28.8202 0 
-10.0464 28.2678 0 
-13.802 26.6366 0 
-11.9242 27.4522 0 
-13.802 26.6366 0 
-17.3004 24.5091 0 
-15.5512 25.5728 0 
-17.3004 24.5091 0 
-20.4766 21.9251 0 
-18.8885 23.2171 0 
-20.4766 21.9251 0 
-23.2713 18.9326 0 
-21.874 20.4289 0 
-23.2713 18.9326 0 
-25.6326 15.5875 0 
-24.452 17.2601 0 
-25.6326 15.5875 0 
-27.5163 11.952 0 
-26.5745 13.7698 0 
-27.5163 11.952 0 
-28.8875 8.0939 0 
-28.2019 10.023 0 
-28.8875 8.0939 0 
-29.7206 4.085 0 
-29.304 6.08945 0 
-29.7206 4.085 0 
-30 -1.29553e-13 0 
-29.8603 2.0425 0 
-30 -1.29553e-13 0 
-29.7206 -4.085 0 
-29.8603 -2.0425 0 
-29.7206 -4.085 0 
-28.8875 -8.0939 0 
-29.304 -6.08945 0 
-28.8875 -8.0939 0 
-27.5163 -11.952 0 
-28.2019 -10.023 0 
-27.5163 -11.952 0 
-25.6326 -15.5875 0 
-26.5745 -13.7698 0 
-25.6326 -15.5875 0 
-23.2713 -18.9326 0 
-24.452 -17.2601 0 
-23.2713 -18.9326 0 
-20.4766 -21.9251 0 
-21.874 -20.4289 0 
-20.4766 -21.9251 0 
-17.3004 -24.5091 0 
-18.8885 -23.2171 0 
-17.3004 -24.5091 0 
-13.802 -26.6366 0 
-15.5512 -25.5728 0 
-13.802 -26.6366 0 
-10.0464 -28.2678 0 
-11.9242 -27.4522 0 
-10.0464 -28.2678 0 
-6.10368 -29.3725 0 
-8.07503 -28.8202 0 
-6.10368 -29.3725 0 
-2.04727 -29.9301 0 
-4.07548 -29.6513 0 
-2.04727 -29.9301 0 
2.04727 -29.9301 0 
2.73559e-13 -29.9301 0 
2.04727 -29.9301 0 
6.10368 -29.3725 0 
4.07548 -29.6513 0 
6.10368 -29.3725 0 
10.0464 -28.2678 0 
8.07503 -28.8202 0 
10.0464 -28.2678 0 
13.802 -26.6366 0 
11.9242 -27.4522 0 
13.802 -26.6366 0 
17.3004 -24.5091 0 
15.5512 -25.5728 0 
17.3004 -24.5091 0 
20.4766 -21.9251 0 
18.8885 -23.2171 0 
20.4766 -21.9251 0 
23.2713 -18.9326 0 
21.874 -20.4289 0 
23.2713 -18.9326 0 
25.6326 -15.5875 0 
24.452 -17.2601 0 
25.6326 -15.5875 0 
27.5163 -11.952 0 
26.5745 -13.7698 0 
27.5163 -11.952 0 
28.8875 -8.0939 0 
28.2019 -10.023 0 
28.8875 -8.0939 0 
29.7206 -4.085 0 
29.304 -6.08945 0 
29.7206 -4.085 0 
30 0 0 
29.8603 -2.0425 0 
20 0 0 
19.563 4.15823 0 
19.7815 2.07912 0 
19.563 4.15823 0 
18.2709 8.13473 0 
18.9169 6.14648 0 
18.2709 8.13473 0 
16.1803 11.7557 0 
17.2256 9.94522 0 
16.1803 11.7557 0 
13.3826 14.8629 0 
14.7815 13.3093 0 
13.3826 14.8629 0 
10 17.3205 0 
11.6913 16.0917 0 
10 17.3205 0 
6.18034 19.0211 0 
8.09017 18.1708 0 
6.18034 19.0211 0 
2.09057 19.8904 0 
4.13545 19.4558 0 
2.09057 19.8904 0 
-2.09057 19.8904 0 
-7.79377e-14 19.8904 0 
-2.09057 19.8904 0 
-6.18034 19.0211 0 
-4.13545 19.4558 0 
-6.18034 19.0211 0 
-10 17.3205 0 
-8.09017 18.1708 0 
-10 17.3205 0 
-13.3826 14.8629 0 
-11.6913 16.0917 0 
-13.3826 14.8629 0 
-16.1803 11.7557 0 
-14.7815 13.3093 0 
-16.1803 11.7557 0 
-18.2709 8.13473 0 
-17.2256 9.94522 0 
-18.2709 8.13473 0 
-19.563 4.15823 0 
-18.9169 6.14648 0 
-19.563 4.15823 0 
-20 -1.75186e-13 0 
-19.7815 2.07912 0 
-20 -1.75186e-13 0 
-19.563 -4.15823 0 
-19.7815 -2.07912 0 
-19.563 -4.15823 0 
-18.2709 -8.13473 0 
-18.9169 -6.14648 0 
-18.2709 -8.13473 0 
-16.1803 -11.7557 0 
-17.2256 -9.94522 0 
-16.1803 -11.7557 0 
-13.3826 -14.8629 0 
-14.7815 -13.3093 0 
-13.3826 -14.8629 0 
-10 -17.3205 0 
-11.6913 -16.0917 0 
-10 -17.3205 0 
-6.18034 -19.0211 0 
-8.09017 -18.1708 0 
-6.18034 -19.0211 0 
-2.09057 -19.8904 0 
-4.13545 -19.4558 0 
-2.09057 -19.8904 0 
2.09057 -19.8904 0 
1.28342e-13 -19.8904 0 
2.09057 -19.8904 0 
6.18034 -19.0211 0 
4.13545 -19.4558 0 
6.18034 -19.0211 0 
10 -17.3205 0 
8.09017 -18.1708 0 
10 -17.3205 0 
13.3826 -14.8629 0 
11.6913 -16.0917 0 
13.3826 -14.8629 0 
16.1803 -11.7557 0 
14.7815 -13.3093 0 
16.1803 -11.7557 0 
18.2709 -8.13473 0 
17.2256 -9.94522 0 
18.2709 -8.13473 0 
19.563 -4.15823 0 
18.9169 -6.14648 0 
19.563 -4.15823 0 
20 0 0 
19.7815 -2.07912 0 
30 0 0 
26.8741 0.974988 0 
29.7206 -4.085 0 
28.4371 0.487494 0 
28.2973 -1.55501 0 
29.8603 -2.0425 0 
-26.8741 -0.974988 0 
-29.7206 4.085 0 
-30 -1.29553e-13 0 
-28.2973 1.55501 0 
-29.8603 2.0425 0 
-28.4371 -0.487494 0 
28.8875 8.0939 0 
27.5163 11.952 0 
26.1303 6.31847 0 
28.2019 10.023 0 
26.8233 9.13525 0 
27.5089 7.20619 0 
-27.5163 11.952 0 
-28.8875 8.0939 0 
-24.8123 11.1363 0 
-28.2019 10.023 0 
-26.8499 9.61513 0 
-26.1643 11.5442 0 
24.8123 -11.1363 0 
27.5163 -11.952 0 
28.8875 -8.0939 0 
26.1643 -11.5442 0 
28.2019 -10.023 0 
26.8499 -9.61513 0 
-27.5163 -11.952 0 
-24.2598 -11.5862 0 
-28.8875 -8.0939 0 
-25.8881 -11.7691 0 
-26.5737 -9.84006 0 
-28.2019 -10.023 0 
-23.2713 -18.9326 0 
-20.4766 -21.9251 0 
-21.4345 -16.212 0 
-21.874 -20.4289 0 
-20.9555 -19.0686 0 
-22.3529 -17.5723 0 
-23.2713 18.9326 0 
-21.4345 16.212 0 
-20.4766 21.9251 0 
-22.3529 17.5723 0 
-20.9555 19.0686 0 
-21.874 20.4289 0 
20.4766 -21.9251 0 
23.2713 -18.9326 0 
17.6408 -20.2764 0 
21.874 -20.4289 0 
20.4561 -19.6045 0 
19.0587 -21.1007 0 
20.4766 21.9251 0 
17.6408 20.2764 0 
23.2713 18.9326 0 
19.0587 21.1007 0 
20.4561 19.6045 0 
21.874 20.4289 0 
-21.4345 -16.212 0 
-20.4766 -21.9251 0 
-18.6189 -17.9483 0 
-20.9555 -19.0686 0 
-19.5477 -19.9367 0 
-20.0267 -17.0801 0 
-21.4345 16.212 0 
-18.6189 17.9483 0 
-20.4766 21.9251 0 
-20.0267 17.0801 0 
-19.5477 19.9367 0 
-20.9555 19.0686 0 
17.6408 -20.2764 0 
23.2713 -18.9326 0 
19.1778 -17.3498 0 
20.4561 -19.6045 0 
21.2246 -18.1412 0 
18.4093 -18.8131 0 
17.6408 20.2764 0 
19.1778 17.3498 0 
23.2713 18.9326 0 
18.4093 18.8131 0 
21.2246 18.1412 0 
20.4561 19.6045 0 
26.1303 6.31847 0 
27.5163 11.952 0 
24.2263 9.04431 0 
26.8233 9.13525 0 
25.8713 10.4982 0 
25.1783 7.68139 0 
23.8795 -7.88488 0 
24.8123 -11.1363 0 
28.8875 -8.0939 0 
24.3459 -9.51061 0 
26.8499 -9.61513 0 
26.3835 -7.98939 0 
-24.8123 11.1363 0 
-28.8875 8.0939 0 
-23.8795 7.88488 0 
-26.8499 9.61513 0 
-26.3835 7.98939 0 
-24.3459 9.51061 0 
-24.2598 -11.5862 0 
-24.5005 -8.27268 0 
-28.8875 -8.0939 0 
-24.3802 -9.92945 0 
-26.694 -8.18329 0 
-26.5737 -9.84006 0 
26.8741 0.974988 0 
25.7275 -2.43029 0 
29.7206 -4.085 0 
26.3008 -0.727652 0 
27.724 -3.25765 0 
28.2973 -1.55501 0 
-25.7275 2.43029 0 
-29.7206 4.085 0 
-26.8741 -0.974988 0 
-27.724 3.25765 0 
-28.2973 1.55501 0 
-26.3008 0.727652 0 
-20.4766 -21.9251 0 
-17.4676 -20.4297 0 
-18.6189 -17.9483 0 
-18.9721 -21.1774 0 
-18.0432 -19.189 0 
-19.5477 -19.9367 0 
-20.4766 21.9251 0 
-18.6189 17.9483 0 
-17.4676 20.4297 0 
-19.5477 19.9367 0 
-18.0432 19.189 0 
-18.9721 21.1774 0 
23.2713 -18.9326 0 
21.5741 -16.0296 0 
19.1778 -17.3498 0 
22.4227 -17.4811 0 
20.3759 -16.6897 0 
21.2246 -18.1412 0 
23.2713 18.9326 0 
19.1778 17.3498 0 
21.5741 16.0296 0 
21.2246 18.1412 0 
20.3759 16.6897 0 
22.4227 17.4811 0 
27.5163 11.952 0 
24.1894 11.7285 0 
24.2263 9.04431 0 
25.8529 11.8403 0 
24.2078 10.3864 0 
25.8713 10.4982 0 
-28.8875 -8.0939 0 
-24.5005 -8.27268 0 
-26.1637 -6.1644 0 
-26.694 -8.18329 0 
-25.3321 -7.21854 0 
-27.5256 -7.12915 0 
2.09057 -19.8904 0 
-1.73472 -23.224 0 
2.42018 -23.3943 0 
0.177926 -21.5572 0 
0.342731 -23.3092 0 
2.25537 -21.6424 0 
2.09057 19.8904 0 
2.42018 23.3943 0 
-1.73471 23.224 0 
2.25538 21.6424 0 
0.342739 23.3092 0 
0.177931 21.5572 0 
-2.09057 -19.8904 0 
-1.73472 -23.224 0 
2.09057 -19.8904 0 
-1.91264 -21.5572 0 
0.177926 -21.5572 0 
1.28342e-13 -19.8904 0 
-2.09057 19.8904 0 
2.09057 19.8904 0 
-1.73471 23.224 0 
-7.79377e-14 19.8904 0 
0.177931 21.5572 0 
-1.91264 21.5572 0 
-20 -1.75186e-13 0 
-22.7696 3.7082 0 
-23.2765 -1.14595 0 
-21.3848 1.8541 0 
-23.023 1.28113 0 
-21.6382 -0.572976 0 
20 0 0 
22.7696 -3.7082 0 
23.2765 1.14595 0 
21.3848 -1.8541 0 
23.023 -1.28113 0 
21.6382 0.572976 0 
28.8875 -8.0939 0 
26.1871 -5.38231 0 
23.8795 -7.88488 0 
27.5373 -6.73811 0 
25.0333 -6.6336 0 
26.3835 -7.98939 0 
-28.8875 8.0939 0 
-26.1871 5.38231 0 
-23.8795 7.88488 0 
-27.5373 6.73811 0 
-25.0333 6.6336 0 
-26.3835 7.98939 0 
2.09057 -19.8904 0 
2.42018 -23.3943 0 
6.61185 -22.2786 0 
2.25537 -21.6424 0 
4.51601 -22.8365 0 
4.35121 -21.0845 0 
2.09057 19.8904 0 
6.6119 22.2786 0 
2.42018 23.3943 0 
4.35124 21.0845 0 
4.51604 22.8365 0 
2.25538 21.6424 0 
-2.09057 -19.8904 0 
-6.61019 -22.2804 0 
-1.73472 -23.224 0 
-4.35038 -21.0854 0 
-4.17245 -22.7522 0 
-1.91264 -21.5572 0 
-2.09057 19.8904 0 
-1.73471 23.224 0 
-6.61012 22.2804 0 
-1.91264 21.5572 0 
-4.17241 22.7522 0 
-4.35034 21.0854 0 
29.7206 -4.085 0 
25.7275 -2.43029 0 
26.1871 -5.38231 0 
27.724 -3.25765 0 
25.9573 -3.9063 0 
27.9538 -4.73366 0 
-29.7206 4.085 0 
-25.7275 2.43029 0 
-26.1871 5.38231 0 
-27.724 3.25765 0 
-25.9573 3.9063 0 
-27.9538 4.73366 0 
6.18034 -19.0211 0 
2.09057 -19.8904 0 
6.61185 -22.2786 0 
4.13545 -19.4558 0 
4.35121 -21.0845 0 
6.39609 -20.6499 0 
6.18034 19.0211 0 
6.6119 22.2786 0 
2.09057 19.8904 0 
6.39612 20.6499 0 
4.35124 21.0845 0 
4.13545 19.4558 0 
-2.09057 -19.8904 0 
[...]
CELL_DATA 348
FIELD FieldData 1
material 1 348 int
3
3
3
3
3
3
3
3
3
3
3
3
3
3
3
3
3
3
3
3
3
3
3
3
3
3
3
3
3
3
3
3
3
3
3
3
3
3
3
3
3
3
3
3
3
3
2
2
2
2
2
2
2
2
2
2
2
2
2
2
2
2
2
2
2
2
2
2
2
2
2
2
2
2
2
2
1
1
1
1
1
1
1
1
1
1
1
1
1
1
1
1
1
1
1
1
1
1
1
1
1
1
1
1
1
1
1
1
1
1
1
1
1
1
1
1
1
1
1
1
1
1
1
1
1
1
1
1
1
1
1
1
1
1
1
1
1
1
1
1
1
1
1
1
1
1
1
1
1
1
1
1
1
1
1
1
1
1
1
1
1
1
1
1
1
1
1
1
1
1
1
1
1
1
1
1
1
1
1
1
1
1
1
1
1
1
1
1
1
1
1
1
1
1
1
1
1
1
1
1
1
1
1
1
1
1
1
1
1
1
1
1
1
1
1
1
1
1
1
1
1
1
1
1
1
1
1
1
1
1
1
1
1
1
1
1
1
1
1
1
1
1
1
1
1
1
1
1
1
1
1
1
1
1
1
1
1
1
1
1
1
1
1
1
1
1
1
1
1
1
1
1
1
1
1
1
1
1
1
1
1
1
1
1
1
1
1
1
1
1
1
1
1
1
1
1
1
1
1
1
1
1
1
1
1
1
1
1
1
1
1
1
1
1
1
1
1
1
1
1
1
1
1
1
1
1
1
1
1
1
1
1
1
1
1
1
1
1
1
1
1
1
1
1
1
1
1
1
FIELD FieldData 1
elindex 1 348 int
0
1
2
3
4
5
6
7
8
9
10
11
12
13
14
15
16
17
18
19
20
21
22
23
24
25
26
27
28
29
30
31
32
33
34
35
36
37
38
39
40
41
42
43
44
45
46
47
48
49
50
51
52
53
54
55
56
57
58
59
60
61
62
63
64
65
66
67
68
69
70
71
72
73
74
75
76
77
78
79
80
81
82
83
84
85
86
87
88
89
90
91
92
93
94
95
96
97
98
99
100
101
102
103
104
105
106
107
108
109
110
111
112
113
114
115
116
117
118
119
120
121
122
123
124
125
126
127
128
129
130
131
132
133
134
135
136
137
138
139
140
141
142
143
144
145
146
147
148
149
150
151
152
153
154
155
156
157
158
159
160
161
162
163
164
165
166
167
168
169
170
171
172
173
174
175
176
177
178
179
180
181
182
183
184
185
186
187
188
189
190
191
192
193
194
195
196
197
198
199
200
201
202
203
204
205
206
207
208
209
210
211
212
213
214
215
216
217
218
219
220
221
222
223
224
225
226
227
228
229
230
231
232
233
234
235
236
237
238
239
240
241
242
243
244
245
246
247
248
249
250
251
252
253
254
255
256
257
258
259
260
261
262
263
264
265
266
267
268
269
270
271
272
273
274
275
276
277
278
279
280
281
282
283
284
285
286
287
288
289
290
291
292
293
294
295
296
297
298
299
300
301
302
303
304
305
306
307
308
309
310
311
312
313
314
315
316
317
318
319
320
321
322
323
324
325
326
327
328
329
330
331
332
333
334
335
336
337
338
339
340
341
342
343
344
345
346
347
