# vtk DataFile Version 3.0
TPZGeoMesh VTK Visualization
ASCII

DATASET UNSTRUCTURED_GRID
POINTS 1296 float
30 0 0 
29.4892 5.51249 0 
29.7446 2.75624 0 
29.4892 5.51249 0 
27.9742 10.8372 0 
28.7317 8.17487 0 
27.9742 10.8372 0 
25.5065 15.793 0 
26.7403 13.3151 0 
25.5065 15.793 0 
22.1703 20.2109 0 
23.8384 18.0019 0 
22.1703 20.2109 0 
18.079 23.9405 0 
20.1247 22.0757 0 
18.079 23.9405 0 
13.3722 26.8549 0 
15.7256 25.3977 0 
13.3722 26.8549 0 
8.20989 28.8548 0 
10.791 27.8548 0 
8.20989 28.8548 0 
2.76805 29.872 0 
5.48897 29.3634 0 
2.76805 29.872 0 
-2.76805 29.872 0 
8.65974e-15 29.872 0 
-2.76805 29.872 0 
-8.20989 28.8548 0 
-5.48897 29.3634 0 
-8.20989 28.8548 0 
-13.3722 26.8549 0 
-10.791 27.8548 0 
-13.3722 26.8549 0 
-18.079 23.9405 0 
-15.7256 25.3977 0 
-18.079 23.9405 0 
-22.1703 20.2109 0 
-20.1247 22.0757 0 
-22.1703 20.2109 0 
-25.5065 15.793 0 
-23.8384 18.0019 0 
-25.5065 15.793 0 
-27.9742 10.8372 0 
-26.7403 13.3151 0 
-27.9742 10.8372 0 
-29.4892 5.51249 0 
-28.7317 8.17487 0 
-29.4892 5.51249 0 
-30 -2.29715e-14 0 
-29.7446 2.75624 0 
-30 -2.29715e-14 0 
-29.4892 -5.51249 0 
-29.7446 -2.75624 0 
-29.4892 -5.51249 0 
-27.9742 -10.8372 0 
-28.7317 -8.17487 0 
-27.9742 -10.8372 0 
-25.5065 -15.793 0 
-26.7403 -13.3151 0 
-25.5065 -15.793 0 
-22.1703 -20.2109 0 
-23.8384 -18.0019 0 
-22.1703 -20.2109 0 
-18.079 -23.9405 0 
-20.1247 -22.0757 0 
-18.079 -23.9405 0 
-13.3722 -26.8549 0 
-15.7256 -25.3977 0 
-13.3722 -26.8549 0 
-8.20989 -28.8548 0 
-10.791 -27.8548 0 
-8.20989 -28.8548 0 
-2.76805 -29.872 0 
-5.48897 -29.3634 0 
-2.76805 -29.872 0 
2.76805 -29.872 0 
7.99361e-15 -29.872 0 
2.76805 -29.872 0 
8.20989 -28.8548 0 
5.48897 -29.3634 0 
8.20989 -28.8548 0 
13.3722 -26.8549 0 
10.791 -27.8548 0 
13.3722 -26.8549 0 
18.079 -23.9405 0 
15.7256 -25.3977 0 
18.079 -23.9405 0 
22.1703 -20.2109 0 
20.1247 -22.0757 0 
22.1703 -20.2109 0 
25.5065 -15.793 0 
23.8384 -18.0019 0 
25.5065 -15.793 0 
27.9742 -10.8372 0 
26.7403 -13.3151 0 
27.9742 -10.8372 0 
29.4892 -5.51249 0 
28.7317 -8.17487 0 
29.4892 -5.51249 0 
30 0 0 
29.7446 -2.75624 0 
40 0 0 
39.6274 5.44667 0 
39.8137 2.72333 0 
39.6274 5.44667 0 
38.5167 10.7919 0 
39.0721 8.11927 0 
38.5167 10.7919 0 
36.6885 15.936 0 
37.6026 13.364 0 
36.6885 15.936 0 
34.1768 20.7834 0 
35.4326 18.3597 0 
34.1768 20.7834 0 
31.0285 25.2435 0 
32.6026 23.0134 0 
31.0285 25.2435 0 
27.3021 29.2334 0 
29.1653 27.2385 0 
27.3021 29.2334 0 
23.0672 32.6788 0 
25.1847 30.9561 0 
23.0672 32.6788 0 
18.4026 35.5154 0 
20.7349 34.0971 0 
18.4026 35.5154 0 
13.3952 37.6904 0 
15.8989 36.6029 0 
13.3952 37.6904 0 
8.13824 39.1634 0 
10.7667 38.4269 0 
8.13824 39.1634 0 
2.7297 39.9068 0 
5.43397 39.5351 0 
2.7297 39.9068 0 
-2.7297 39.9068 0 
7.10543e-15 39.9068 0 
-2.7297 39.9068 0 
-8.13824 39.1634 0 
-5.43397 39.5351 0 
-8.13824 39.1634 0 
-13.3952 37.6904 0 
-10.7667 38.4269 0 
-13.3952 37.6904 0 
-18.4026 35.5154 0 
-15.8989 36.6029 0 
-18.4026 35.5154 0 
-23.0672 32.6788 0 
-20.7349 34.0971 0 
-23.0672 32.6788 0 
-27.3021 29.2334 0 
-25.1847 30.9561 0 
-27.3021 29.2334 0 
-31.0285 25.2435 0 
-29.1653 27.2385 0 
-31.0285 25.2435 0 
-34.1768 20.7834 0 
-32.6026 23.0134 0 
-34.1768 20.7834 0 
-36.6885 15.936 0 
-35.4326 18.3597 0 
-36.6885 15.936 0 
-38.5167 10.7919 0 
-37.6026 13.364 0 
-38.5167 10.7919 0 
-39.6274 5.44667 0 
-39.0721 8.11927 0 
-39.6274 5.44667 0 
-40 4.89843e-15 0 
-39.8137 2.72333 0 
-40 4.89843e-15 0 
-39.6274 -5.44667 0 
-39.8137 -2.72333 0 
-39.6274 -5.44667 0 
-38.5167 -10.7919 0 
-39.0721 -8.11927 0 
-38.5167 -10.7919 0 
-36.6885 -15.936 0 
-37.6026 -13.364 0 
-36.6885 -15.936 0 
-34.1768 -20.7834 0 
-35.4326 -18.3597 0 
-34.1768 -20.7834 0 
-31.0285 -25.2435 0 
-32.6026 -23.0134 0 
-31.0285 -25.2435 0 
-27.3021 -29.2334 0 
-29.1653 -27.2385 0 
-27.3021 -29.2334 0 
-23.0672 -32.6788 0 
-25.1847 -30.9561 0 
-23.0672 -32.6788 0 
-18.4026 -35.5154 0 
-20.7349 -34.0971 0 
-18.4026 -35.5154 0 
-13.3952 -37.6904 0 
-15.8989 -36.6029 0 
-13.3952 -37.6904 0 
-8.13824 -39.1634 0 
-10.7667 -38.4269 0 
-8.13824 -39.1634 0 
-2.7297 -39.9068 0 
-5.43397 -39.5351 0 
-2.7297 -39.9068 0 
2.7297 -39.9068 0 
-2.5091e-14 -39.9068 0 
2.7297 -39.9068 0 
8.13824 -39.1634 0 
5.43397 -39.5351 0 
8.13824 -39.1634 0 
13.3952 -37.6904 0 
10.7667 -38.4269 0 
13.3952 -37.6904 0 
18.4026 -35.5154 0 
15.8989 -36.6029 0 
18.4026 -35.5154 0 
23.0672 -32.6788 0 
20.7349 -34.0971 0 
23.0672 -32.6788 0 
27.3021 -29.2334 0 
25.1847 -30.9561 0 
27.3021 -29.2334 0 
31.0285 -25.2435 0 
29.1653 -27.2385 0 
31.0285 -25.2435 0 
34.1768 -20.7834 0 
32.6026 -23.0134 0 
34.1768 -20.7834 0 
36.6885 -15.936 0 
35.4326 -18.3597 0 
36.6885 -15.936 0 
38.5167 -10.7919 0 
37.6026 -13.364 0 
38.5167 -10.7919 0 
39.6274 -5.44667 0 
39.0721 -8.11927 0 
39.6274 -5.44667 0 
40 0 0 
39.8137 -2.72333 0 
-39.6274 -5.44667 0 
-33.9928 -8.15188 0 
-34.5433 -3.00988 0 
-36.8101 -6.79927 0 
-34.2681 -5.58088 0 
-37.0854 -4.22827 0 
39.6274 5.44667 0 
33.9928 8.15188 0 
34.5433 3.00988 0 
36.8101 6.79927 0 
34.2681 5.58088 0 
37.0854 4.22827 0 
23.0672 -32.6788 0 
22.6452 -26.7168 0 
18.1187 -29.4683 0 
22.8562 -29.6978 0 
20.382 -28.0926 0 
20.593 -31.0736 0 
-23.0672 -32.6788 0 
-18.1187 -29.4683 0 
-22.6452 -26.7168 0 
-20.593 -31.0736 0 
-20.382 -28.0926 0 
-22.8562 -29.6978 0 
23.0672 32.6788 0 
18.1187 29.4683 0 
22.6452 26.7168 0 
20.593 31.0736 0 
20.382 28.0926 0 
22.8562 29.6978 0 
-23.0672 32.6788 0 
-22.6452 26.7168 0 
-18.1187 29.4683 0 
-22.8562 29.6978 0 
-20.382 28.0926 0 
-20.593 31.0736 0 
-39.6274 -5.44667 0 
-38.5167 -10.7919 0 
-33.9928 -8.15188 0 
-39.0721 -8.11927 0 
-36.2548 -9.47187 0 
-36.8101 -6.79927 0 
38.5167 10.7919 0 
33.9928 8.15188 0 
39.6274 5.44667 0 
36.2548 9.47187 0 
36.8101 6.79927 0 
39.0721 8.11927 0 
2.7297 -39.9068 0 
5.32078 -34.6406 0 
-1.60663e-15 -34.5917 0 
4.02524 -37.2737 0 
2.66039 -34.6162 0 
1.36485 -37.2492 0 
-2.7297 39.9068 0 
-5.32078 34.6406 0 
8.0153e-15 34.5917 0 
-4.02524 37.2737 0 
-2.66039 34.6162 0 
-1.36485 37.2492 0 
2.7297 39.9068 0 
8.0153e-15 34.5917 0 
5.32078 34.6406 0 
1.36485 37.2492 0 
2.66039 34.6162 0 
4.02524 37.2737 0 
-2.7297 -39.9068 0 
-1.60663e-15 -34.5917 0 
-5.32078 -34.6406 0 
-1.36485 -37.2492 0 
-2.66039 -34.6162 0 
-4.02524 -37.2737 0 
27.3021 -29.2334 0 
22.6452 -26.7168 0 
23.0672 -32.6788 0 
24.9737 -27.9751 0 
22.8562 -29.6978 0 
25.1847 -30.9561 0 
-23.0672 -32.6788 0 
-22.6452 -26.7168 0 
-27.3021 -29.2334 0 
-22.8562 -29.6978 0 
-24.9737 -27.9751 0 
-25.1847 -30.9561 0 
27.3021 29.2334 0 
23.0672 32.6788 0 
22.6452 26.7168 0 
25.1847 30.9561 0 
22.8562 29.6978 0 
24.9737 27.9751 0 
-23.0672 32.6788 0 
-27.3021 29.2334 0 
-22.6452 26.7168 0 
-25.1847 30.9561 0 
-24.9737 27.9751 0 
-22.8562 29.6978 0 
-18.4026 -35.5154 0 
-13.5962 -32.3065 0 
-18.1187 -29.4683 0 
-15.9994 -33.911 0 
-15.8575 -30.8874 0 
-18.2607 -32.4919 0 
18.4026 35.5154 0 
13.5962 32.3065 0 
18.1187 29.4683 0 
15.9994 33.911 0 
15.8575 30.8874 0 
18.2607 32.4919 0 
-18.4026 35.5154 0 
-18.1187 29.4683 0 
-13.5962 32.3065 0 
-18.2607 32.4919 0 
-15.8575 30.8874 0 
-15.9994 33.911 0 
18.4026 -35.5154 0 
18.1187 -29.4683 0 
13.5962 -32.3065 0 
18.2607 -32.4919 0 
15.8575 -30.8874 0 
15.9994 -33.911 0 
8.13824 -39.1634 0 
5.32078 -34.6406 0 
2.7297 -39.9068 0 
6.72951 -36.902 0 
4.02524 -37.2737 0 
5.43397 -39.5351 0 
-2.7297 -39.9068 0 
-5.32078 -34.6406 0 
-8.13824 -39.1634 0 
-4.02524 -37.2737 0 
-6.72951 -36.902 0 
-5.43397 -39.5351 0 
8.13824 39.1634 0 
2.7297 39.9068 0 
5.32078 34.6406 0 
5.43397 39.5351 0 
4.02524 37.2737 0 
6.72951 36.902 0 
-2.7297 39.9068 0 
-8.13824 39.1634 0 
-5.32078 34.6406 0 
-5.43397 39.5351 0 
-6.72951 36.902 0 
-4.02524 37.2737 0 
18.079 -23.9405 0 
18.1187 -29.4683 0 
22.6452 -26.7168 0 
18.0989 -26.7044 0 
20.382 -28.0926 0 
20.3621 -25.3287 0 
18.079 23.9405 0 
22.6452 26.7168 0 
18.1187 29.4683 0 
20.3621 25.3287 0 
20.382 28.0926 0 
18.0989 26.7044 0 
-18.079 23.9405 0 
-18.1187 29.4683 0 
-22.6452 26.7168 0 
-18.0989 26.7044 0 
-20.382 28.0926 0 
-20.3621 25.3287 0 
-18.079 -23.9405 0 
-22.6452 -26.7168 0 
-18.1187 -29.4683 0 
-20.3621 -25.3287 0 
-20.382 -28.0926 0 
-18.0989 -26.7044 0 
-34.1768 -20.7834 0 
-28.4971 -20.5095 0 
-30.9669 -16.2571 0 
-31.3369 -20.6464 0 
-29.732 -18.3833 0 
-32.5718 -18.5202 0 
34.1768 20.7834 0 
28.4971 20.5095 0 
30.9669 16.2571 0 
31.3369 20.6464 0 
29.732 18.3833 0 
32.5718 18.5202 0 
-34.1768 20.7834 0 
-30.9669 16.2571 0 
-28.4971 20.5095 0 
-32.5718 18.5202 0 
-29.732 18.3833 0 
-31.3369 20.6464 0 
34.1768 -20.7834 0 
30.9669 -16.2571 0 
28.4971 -20.5095 0 
32.5718 -18.5202 0 
29.732 -18.3833 0 
31.3369 -20.6464 0 
-13.3952 -37.6904 0 
-13.5962 -32.3065 0 
-18.4026 -35.5154 0 
-13.4957 -34.9985 0 
-15.9994 -33.911 0 
-15.8989 -36.6029 0 
18.4026 35.5154 0 
13.3952 37.6904 0 
13.5962 32.3065 0 
15.8989 36.6029 0 
13.4957 34.9985 0 
15.9994 33.911 0 
-13.3952 37.6904 0 
-18.4026 35.5154 0 
-13.5962 32.3065 0 
-15.8989 36.6029 0 
-15.9994 33.911 0 
-13.4957 34.9985 0 
18.4026 -35.5154 0 
13.5962 -32.3065 0 
13.3952 -37.6904 0 
15.9994 -33.911 0 
13.4957 -34.9985 0 
15.8989 -36.6029 0 
-31.0285 -25.2435 0 
-28.4971 -20.5095 0 
-34.1768 -20.7834 0 
-29.7628 -22.8765 0 
-31.3369 -20.6464 0 
-32.6026 -23.0134 0 
-31.0285 25.2435 0 
-34.1768 20.7834 0 
-28.4971 20.5095 0 
-32.6026 23.0134 0 
-31.3369 20.6464 0 
-29.7628 22.8765 0 
34.1768 20.7834 0 
31.0285 25.2435 0 
28.4971 20.5095 0 
32.6026 23.0134 0 
29.7628 22.8765 0 
31.3369 20.6464 0 
34.1768 -20.7834 0 
28.4971 -20.5095 0 
[...]
CELL_DATA 256
FIELD FieldData 2
material 1 256 int
2
2
2
2
2
2
2
2
2
2
2
2
2
2
2
2
2
2
2
2
2
2
2
2
2
2
2
2
2
2
2
2
2
2
3
3
3
3
3
3
3
3
3
3
3
3
3
3
3
3
3
3
3
3
3
3
3
3
3
3
3
3
3
3
3
3
3
3
3
3
3
3
3
3
3
3
3
3
3
3
1
1
1
1
1
1
1
1
1
1
1
1
1
1
1
1
1
1
1
1
1
1
1
1
1
1
1
1
1
1
1
1
1
1
1
1
1
1
1
1
1
1
1
1
1
1
1
1
1
1
1
1
1
1
1
1
1
1
1
1
1
1
1
1
1
1
1
1
1
1
1
1
1
1
1
1
1
1
1
1
1
1
1
1
1
1
1
1
1
1
1
1
1
1
1
1
1
1
1
1
1
1
1
1
1
1
1
1
1
1
1
1
1
1
1
1
1
1
1
1
1
1
1
1
1
1
1
1
1
1
1
1
1
1
1
1
1
1
1
1
1
1
1
1
1
1
1
1
1
1
1
1
1
1
1
1
1
1
1
1
1
1
1
1
1
1
1
1
1
1
1
1
1
1
1
1
elindex 1 256 int
0
1
2
3
4
5
6
7
8
9
10
11
12
13
14
15
16
17
18
19
20
21
22
23
24
25
26
27
28
29
30
31
32
33
34
35
36
37
38
39
40
41
42
43
44
45
46
47
48
49
50
51
52
53
54
55
56
57
58
59
60
61
62
63
64
65
66
67
68
69
70
71
72
73
74
75
76
77
78
79
80
81
82
83
84
85
86
87
88
89
90
91
92
93
94
95
96
97
98
99
100
101
102
103
104
105
106
107
108
109
110
111
112
113
114
115
116
117
118
119
120
121
122
123
124
125
126
127
128
129
130
131
132
133
134
135
136
137
138
139
140
141
142
143
144
145
146
147
148
149
150
151
152
153
154
155
156
157
158
159
160
161
162
163
164
165
166
167
168
169
170
171
172
173
174
175
176
177
178
179
180
181
182
183
184
185
186
187
188
189
190
191
192
193
194
195
196
197
198
199
200
201
202
203
204
205
206
207
208
209
210
211
212
213
214
215
216
217
218
219
220
221
222
223
224
225
226
227
228
229
230
231
232
233
234
235
236
237
238
239
240
241
242
243
244
245
246
247
248
249
250
251
252
253
254
255
POINT_DATA 1296
VECTORS Displacement float
0.00654233 0.000958307 0 
0.00670381 0.000391579 0 
0.00669195 -0.000190329 0 
0.0061832 0.00205407 0 
0.00644656 0.0015275 0 
0.00654233 0.000958307 0 
0.00563065 0.00306875 0 
0.00598407 0.00260092 0 
0.0061832 0.00205407 0 
0.00489911 0.00396193 0 
0.00533487 0.00356666 0 
0.00563065 0.00306875 0 
0.00401877 0.00470622 0 
0.00451586 0.00439986 0 
0.00489911 0.00396193 0 
0.00301061 0.00527839 0 
0.00356032 0.00506639 0 
0.00401877 0.00470622 0 
0.00192033 0.0056531 0 
0.00249879 0.00554661 0 
0.00301061 0.00527839 0 
0.000780098 0.00582215 0 
0.00136423 0.00582377 0 
0.00192033 0.0056531 0 
-0.000378374 0.00577806 0 
0.000200862 0.00588711 0 
0.000780098 0.00582215 0 
-0.00150241 0.00552236 0 
-0.00095441 0.00573636 0 
-0.000378374 0.00577806 0 
-0.00256084 0.00506543 0 
-0.00206495 0.00537476 0 
-0.00150241 0.00552236 0 
-0.00352259 0.00441831 0 
-0.00308734 0.00481596 0 
-0.00256084 0.00506543 0 
-0.00434353 0.00360886 0 
-0.00398997 0.00407937 0 
-0.00352259 0.00441831 0 
-0.00500477 0.00266254 0 
-0.00474412 0.00318702 0 
-0.00434353 0.00360886 0 
-0.00547815 0.00160925 0 
-0.00531862 0.00217525 0 
-0.00500477 0.00266254 0 
-0.00575242 0.000485579 0 
-0.00569909 0.00107121 0 
-0.00547815 0.00160925 0 
-0.00581467 -0.000665538 0 
-0.0058706 -8.33573e-05 0 
-0.00575242 0.000485579 0 
-0.00566505 -0.00181417 0 
-0.00582653 -0.00124745 0 
-0.00581467 -0.000665538 0 
-0.00530592 -0.00290994 0 
-0.00556928 -0.00238337 0 
-0.00566505 -0.00181417 0 
-0.00475337 -0.00392461 0 
-0.00510679 -0.00345679 0 
-0.00530592 -0.00290994 0 
-0.00402183 -0.00481779 0 
-0.00445759 -0.00442252 0 
-0.00475337 -0.00392461 0 
-0.00314149 -0.00556209 0 
-0.00363858 -0.00525573 0 
-0.00402183 -0.00481779 0 
-0.00213333 -0.00613425 0 
-0.00268304 -0.00592226 0 
-0.00314149 -0.00556209 0 
-0.00104305 -0.00650897 0 
-0.00162151 -0.00640248 0 
-0.00213333 -0.00613425 0 
9.71801e-05 -0.00667801 0 
-0.000486955 -0.00667964 0 
-0.00104305 -0.00650897 0 
0.00125565 -0.00663393 0 
0.000676416 -0.00674298 0 
9.71801e-05 -0.00667801 0 
0.00237969 -0.00637823 0 
0.00183169 -0.00659223 0 
0.00125565 -0.00663393 0 
0.00343812 -0.0059213 0 
0.00294222 -0.00623063 0 
0.00237969 -0.00637823 0 
0.00439986 -0.00527418 0 
0.00396462 -0.00567183 0 
0.00343812 -0.0059213 0 
0.00522081 -0.00446473 0 
0.00486725 -0.00493524 0 
0.00439986 -0.00527418 0 
0.00588205 -0.00351841 0 
0.00562139 -0.00404288 0 
0.00522081 -0.00446473 0 
0.00635543 -0.00246512 0 
0.00619589 -0.00303111 0 
0.00588205 -0.00351841 0 
0.0066297 -0.00134145 0 
0.00657637 -0.00192707 0 
0.00635543 -0.00246512 0 
0.00669195 -0.000190329 0 
0.00674788 -0.00077251 0 
0.0066297 -0.00134145 0 
0.00261905 -0.000109242 0 
0.00262403 4.02074e-05 0 
0.0025548 0.00018357 0 
0.0025548 0.00018357 0 
0.00254044 0.000333426 0 
0.00245173 0.00046535 0 
0.00245173 0.00046535 0 
0.0024175 0.000613192 0 
0.00231021 0.000733587 0 
0.00231021 0.000733587 0 
0.00225687 0.000872443 0 
0.00213617 0.000976802 0 
0.00213617 0.000976802 0 
0.00206346 0.00110792 0 
0.00192938 0.00119421 0 
0.00192938 0.00119421 0 
0.0018395 0.00131519 0 
0.00169286 0.00138385 0 
0.00169286 0.00138385 0 
0.0015887 0.00148968 0 
0.00143521 0.00153807 0 
0.00143521 0.00153807 0 
0.00131683 0.00162788 0 
0.00115996 0.00165494 0 
0.00115996 0.00165494 0 
0.00102925 0.00172883 0 
0.000870112 0.00173313 0 
0.000870112 0.00173313 0 
0.000730086 0.00178994 0 
0.000569057 0.00177242 0 
0.000569057 0.00177242 0 
0.00042505 0.00180846 0 
0.000268912 0.00177014 0 
0.000268912 0.00177014 0 
0.00012096 0.0017852 0 
-2.6992e-05 0.00172667 0 
-2.6992e-05 0.00172667 0 
-0.00017721 0.00172193 0 
-0.000315298 0.00164281 0 
-0.000315298 0.00164281 0 
-0.000464599 0.00161848 0 
-0.000592897 0.00151981 0 
-0.000592897 0.00151981 0 
-0.000734712 0.00147564 0 
-0.000848109 0.00136188 0 
-0.000848109 0.00136188 0 
-0.000982391 0.00129768 0 
-0.00107819 0.00117072 0 
-0.00107819 0.00117072 0 
-0.00120424 0.00108862 0 
-0.00128097 0.000949059 0 
-0.00128097 0.000949059 0 
-0.00139584 0.000850731 0 
-0.00145395 0.000700085 0 
-0.00145395 0.000700085 0 
-0.00155253 0.000588725 0 
-0.00158973 0.000432531 0 
-0.00158973 0.000432531 0 
-0.0016719 0.000308143 0 
-0.00168622 0.000148906 0 
-0.00168622 0.000148906 0 
-0.00175277 1.44316e-05 0 
-0.00174558 -0.000146479 0 
-0.00174558 -0.000146479 0 
-0.00179266 -0.000289098 0 
-0.00176343 -0.000447433 0 
-0.00176343 -0.000447433 0 
-0.00179029 -0.00059414 0 
-0.00174177 -0.000746625 0 
-0.00174177 -0.000746625 0 
-0.00174675 -0.000896074 0 
-0.00167752 -0.00103944 0 
-0.00167752 -0.00103944 0 
-0.00166316 -0.00118929 0 
-0.00157445 -0.00132122 0 
-0.00157445 -0.00132122 0 
-0.00154022 -0.00146906 0 
-0.00143293 -0.00158945 0 
-0.00143293 -0.00158945 0 
-0.00137959 -0.00172831 0 
-0.00125889 -0.00183267 0 
-0.00125889 -0.00183267 0 
-0.00118618 -0.00196378 0 
-0.0010521 -0.00205007 0 
-0.0010521 -0.00205007 0 
-0.000962223 -0.00217105 0 
-0.000815585 -0.00223971 0 
-0.000815585 -0.00223971 0 
-0.000711419 -0.00234555 0 
-0.000557935 -0.00239393 0 
-0.000557935 -0.00239393 0 
-0.000439552 -0.00248375 0 
-0.000282684 -0.00251081 0 
-0.000282684 -0.00251081 0 
-0.000151968 -0.0025847 0 
7.16617e-06 -0.002589 0 
7.16617e-06 -0.002589 0 
0.000147192 -0.00264581 0 
0.000308221 -0.00262828 0 
0.000308221 -0.00262828 0 
0.000452229 -0.00266433 0 
0.000608366 -0.00262601 0 
0.000608366 -0.00262601 0 
0.000756318 -0.00264107 0 
0.00090427 -0.00258254 0 
0.00090427 -0.00258254 0 
0.00105449 -0.00257779 0 
0.00119258 -0.00249868 0 
0.00119258 -0.00249868 0 
0.00134188 -0.00247434 0 
0.00147017 -0.00237568 0 
0.00147017 -0.00237568 0 
0.00161199 -0.00233151 0 
0.00172539 -0.00221775 0 
0.00172539 -0.00221775 0 
0.00185967 -0.00215354 0 
0.00195547 -0.00202659 0 
0.00195547 -0.00202659 0 
0.00208152 -0.00194448 0 
0.00215825 -0.00180493 0 
0.00215825 -0.00180493 0 
0.00227312 -0.0017066 0 
0.00233123 -0.00155595 0 
0.00233123 -0.00155595 0 
0.0024298 -0.00144459 0 
0.00246701 -0.0012884 0 
0.00246701 -0.0012884 0 
0.00254918 -0.00116401 0 
0.0025635 -0.00100477 0 
0.0025635 -0.00100477 0 
0.00263005 -0.000870299 0 
0.00262286 -0.000709388 0 
0.00262286 -0.000709388 0 
0.00266994 -0.000566769 0 
0.00264071 -0.000408434 0 
0.00264071 -0.000408434 0 
0.00266757 -0.000261727 0 
0.00261905 -0.000109242 0 
-0.00167752 -0.00103944 0 
-0.00343089 -0.00164108 0 
-0.00368229 -0.00106443 0 
-0.00254726 -0.001283 0 
-0.00360372 -0.00136609 0 
-0.00263833 -0.00107805 0 
0.0025548 0.00018357 0 
0.00430817 0.000785216 0 
0.00455957 0.000208567 0 
0.00342454 0.00042713 0 
0.00448099 0.000510228 0 
0.00351561 0.000222181 0 
0.00195547 -0.00202659 0 
0.00324923 -0.00331495 0 
0.00286991 -0.00385688 0 
0.00255161 -0.002684 0 
0.00309653 -0.0036219 0 
0.00242563 -0.00288897 0 
-0.000557935 -0.00239393 0 
-0.0015235 -0.00414542 0 
-0.00194665 -0.00367558 0 
-0.00105366 -0.00321691 0 
-0.00177204 -0.00394649 0 
-0.00120155 -0.00304799 0 
0.00143521 0.00153807 0 
0.00240078 0.00328956 0 
0.00282393 0.00281971 0 
0.00193094 0.00236104 0 
0.00264931 0.00309062 0 
0.00207883 0.00219212 0 
-0.00107819 0.00117072 0 
-0.00237196 0.00245909 0 
-0.00199263 0.00300102 0 
-0.00167433 0.00182813 0 
-0.00221925 0.00276603 0 
-0.00154835 0.0020331 0 
-0.00167752 -0.00103944 0 
-0.00157445 -0.00132122 0 
-0.00343089 -0.00164108 0 
-0.00166316 -0.00118929 0 
-0.00246282 -0.00149515 0 
-0.00254726 -0.001283 0 
0.00245173 0.00046535 0 
0.00430817 0.000785216 0 
0.0025548 0.00018357 0 
0.0033401 0.000639285 0 
0.00342454 0.00042713 0 
0.00254044 0.000333426 0 
0.00090427 -0.00258254 0 
0.00132189 -0.00434992 0 
0.000713997 -0.00462324 0 
0.00106548 -0.00344948 0 
0.00103121 -0.00453683 0 
0.0008508 -0.00356581 0 
-2.6992e-05 0.00172667 0 
-0.000444617 0.00349405 0 
0.000163281 0.00376738 0 
-0.0001882 0.00259361 0 
-0.000153929 0.00368096 0 
2.64781e-05 0.00270994 0 
0.000268912 0.00177014 0 
0.000163281 0.00376738 0 
0.0007704 0.00357879 0 
0.000257763 0.00273168 0 
0.000480102 0.00372333 0 
0.000472052 0.00265772 0 
0.000608366 -0.00262601 0 
0.000713997 -0.00462324 0 
0.000106878 -0.00443465 0 
0.000619515 -0.00358754 0 
0.000397176 -0.0045792 0 
0.000405227 -0.00351358 0 
0.00215825 -0.00180493 0 
0.00324923 -0.00331495 0 
0.00195547 -0.00202659 0 
0.00270415 -0.00251677 0 
0.00255161 -0.002684 0 
0.00208152 -0.00194448 0 
-0.000557935 -0.00239393 0 
-0.00194665 -0.00367558 0 
-0.000815585 -0.00223971 0 
-0.00120155 -0.00304799 0 
-0.00138153 -0.00291448 0 
-0.000711419 -0.00234555 0 
0.00169286 0.00138385 0 
0.00143521 0.00153807 0 
0.00282393 0.00281971 0 
0.0015887 0.00148968 0 
0.00207883 0.00219212 0 
0.00225881 0.00205861 0 
-0.00107819 0.00117072 0 
-0.00128097 0.000949059 0 
-0.00237196 0.00245909 0 
-0.00120424 0.00108862 0 
-0.00182687 0.0016609 0 
-0.00167433 0.00182813 0 
-0.000282684 -0.00251081 0 
-0.00086019 -0.0042308 0 
-0.0015235 -0.00414542 0 
-0.000600447 -0.00333132 0 
-0.0012069 -0.0042382 0 
-0.000846281 -0.00332095 0 
0.00115996 0.00165494 0 
0.00173747 0.00337494 0 
0.00240078 0.00328956 0 
0.00147773 0.00247546 0 
0.00208417 0.00338233 0 
0.00172356 0.00246508 0 
-0.000848109 0.00136188 0 
-0.00199263 0.00300102 0 
-0.00137451 0.00315842 0 
-0.00136356 0.00217428 0 
-0.00169862 0.0031298 0 
-0.00114032 0.00222066 0 
0.00172539 -0.00221775 0 
0.00286991 -0.00385688 0 
0.00225179 -0.00401428 0 
0.00224083 -0.00303014 0 
0.0025759 -0.00398566 0 
0.0020176 -0.00307653 0 
0.00119258 -0.00249868 0 
0.00132189 -0.00434992 0 
0.00090427 -0.00258254 0 
0.00128279 -0.00338843 0 
0.00106548 -0.00344948 0 
0.00105449 -0.00257779 0 
0.000608366 -0.00262601 0 
0.000106878 -0.00443465 0 
0.000308221 -0.00262828 0 
0.000405227 -0.00351358 0 
0.000182 -0.00349559 0 
0.000452229 -0.00266433 0 
0.000569057 0.00177242 0 
0.000268912 0.00177014 0 
0.0007704 0.00357879 0 
0.00042505 0.00180846 0 
0.000472052 0.00265772 0 
0.000695278 0.00263973 0 
-2.6992e-05 0.00172667 0 
-0.000315298 0.00164281 0 
-0.000444617 0.00349405 0 
-0.00017721 0.00172193 0 
-0.000405507 0.00253256 0 
-0.0001882 0.00259361 0 
0.00439986 -0.00527418 0 
0.00286991 -0.00385688 0 
0.00324923 -0.00331495 0 
0.00356162 -0.00457926 0 
0.00309653 -0.0036219 0 
0.00382463 -0.0042279 0 
0.00401877 0.00470622 0 
0.00282393 0.00281971 0 
0.00240078 0.00328956 0 
0.00342143 0.0036963 0 
0.00264931 0.00309062 0 
0.00313651 0.00401162 0 
-0.00352259 0.00441831 0 
-0.00199263 0.00300102 0 
-0.00237196 0.00245909 0 
-0.00268434 0.00372339 0 
-0.00221925 0.00276603 0 
-0.00294736 0.00337203 0 
-0.00314149 -0.00556209 0 
-0.00194665 -0.00367558 0 
-0.0015235 -0.00414542 0 
-0.00254415 -0.00455217 0 
-0.00177204 -0.00394649 0 
-0.00225923 -0.00486748 0 
-0.00125889 -0.00183267 0 
-0.0026329 -0.0029821 0 
-0.00300749 -0.00255324 0 
-0.0019498 -0.00235986 0 
-0.00285571 -0.00279242 0 
-0.00208994 -0.00220906 0 
0.00213617 0.000976802 0 
0.00351017 0.00212623 0 
0.00388476 0.00169737 0 
0.00282707 0.001504 0 
0.00373299 0.00193655 0 
0.00296722 0.00135319 0 
-0.00158973 0.000432531 0 
-0.00326595 0.0012044 0 
-0.00295935 0.00167243 0 
-0.00238474 0.000834469 0 
-0.00314825 0.00146315 0 
-0.00227845 0.00100496 0 
0.00246701 -0.0012884 0 
0.00414323 -0.00206026 0 
0.00383663 -0.00252829 0 
0.00326202 -0.00169034 0 
0.00402553 -0.00231902 0 
0.00315573 -0.00186083 0 
7.16617e-06 -0.002589 0 
-0.00086019 -0.0042308 0 
-0.000282684 -0.00251081 0 
-0.000384149 -0.00339447 0 
-0.000600447 -0.00333132 0 
-0.000151968 -0.0025847 0 
0.00115996 0.00165494 0 
0.000870112 0.00173313 0 
0.00173747 0.00337494 0 
0.00102925 0.00172883 0 
0.00126143 0.0025386 0 
0.00147773 0.00247546 0 
-0.000592897 0.00151981 0 
-0.000848109 0.00136188 0 
-0.00137451 0.00315842 0 
-0.000734712 0.00147564 0 
-0.00114032 0.00222066 0 
-0.000941342 0.00232368 0 
0.00172539 -0.00221775 0 
0.00225179 -0.00401428 0 
0.00147017 -0.00237568 0 
0.0020176 -0.00307653 0 
0.00181862 -0.00317955 0 
0.00161199 -0.00233151 0 
-0.0010521 -0.00205007 0 
-0.0026329 -0.0029821 0 
-0.00125889 -0.00183267 0 
-0.00179931 -0.00252609 0 
-0.0019498 -0.00235986 0 
-0.00118618 -0.00196378 0 
-0.00145395 0.000700085 0 
-0.00158973 0.000432531 0 
-0.00295935 0.00167243 0 
-0.00155253 0.000588725 0 
-0.00227845 0.00100496 0 
-0.00216347 0.00119626 0 
0.00213617 0.000976802 0 
0.00192938 0.00119421 0 
0.00351017 0.00212623 0 
0.00206346 0.00110792 0 
0.00267659 0.00167023 0 
0.00282707 0.001504 0 
0.00246701 -0.0012884 0 
0.00383663 -0.00252829 0 
0.00233123 -0.00155595 0 
0.00315573 -0.00186083 0 
0.00304075 -0.00205213 0 
0.0024298 -0.00144459 0 
-0.000444617 0.00349405 0 
-0.00079117 0.00285465 0 
-0.00150241 0.00552236 0 
-0.000645402 0.00320166 0 
-0.00112215 0.00410657 0 
-0.000877496 0.00450581 0 
0.000106878 -0.00443465 0 
-0.00104305 -0.00650897 0 
-0.000234211 -0.0038682 0 
-0.000372072 -0.00546941 0 
-0.000613992 -0.00510666 0 
-9.11751e-05 -0.00417873 0 
0.0007704 0.00357879 0 
0.00192033 0.0056531 0 
0.00111149 0.00301234 0 
0.00124935 0.00461354 0 
0.00149127 0.00425079 0 
0.000968453 0.00332287 0 
0.00132189 -0.00434992 0 
0.00166845 -0.00371052 0 
0.00237969 -0.00637823 0 
0.00152268 -0.00405752 0 
0.00199943 -0.00496244 0 
0.00175477 -0.00536167 0 
-0.00079117 0.00285465 0 
-0.00137451 0.00315842 0 
-0.00150241 0.00552236 0 
-0.0010737 0.00304363 0 
-0.00151566 0.00428663 0 
-0.00112215 0.00410657 0 
0.00111149 0.00301234 0 
0.00192033 0.0056531 0 
0.00173747 0.00337494 0 
0.00149127 0.00425079 0 
0.0019061 0.00446027 0 
0.00141533 0.00323073 0 
-0.000234211 -0.0038682 0 
-0.00104305 -0.00650897 0 
-0.00086019 -0.0042308 0 
-0.000613992 -0.00510666 0 
-0.00102882 -0.00531613 0 
-0.000538057 -0.0040866 0 
0.00166845 -0.00371052 0 
0.00225179 -0.00401428 0 
0.00237969 -0.00637823 0 
0.00195098 -0.00389949 0 
0.00239294 -0.0051425 0 
0.00199943 -0.00496244 0 
0.00125565 -0.00663393 0 
0.000713997 -0.00462324 0 
0.00132189 -0.00434992 0 
0.000917437 -0.00560039 0 
0.00103121 -0.00453683 0 
0.00132693 -0.00543539 0 
-0.000378374 0.00577806 0 
0.000163281 0.00376738 0 
-0.000444617 0.00349405 0 
-4.01588e-05 0.00474453 0 
-0.000153929 0.00368096 0 
-0.000449648 0.00457952 0 
0.000780098 0.00582215 0 
0.0007704 0.00357879 0 
0.000163281 0.00376738 0 
0.000813402 0.00464393 0 
0.000480102 0.00372333 0 
0.000404302 0.00476657 0 
9.71801e-05 -0.00667801 0 
0.000106878 -0.00443465 0 
0.000713997 -0.00462324 0 
6.38765e-05 -0.0054998 0 
0.000397176 -0.0045792 0 
0.000472976 -0.00562243 0 
-0.00566505 -0.00181417 0 
-0.00368229 -0.00106443 0 
-0.00343089 -0.00164108 0 
-0.00465283 -0.00136494 0 
-0.00360372 -0.00136609 0 
-0.00448907 -0.00175322 0 
0.00654233 0.000958307 0 
0.00455957 0.000208567 0 
0.00430817 0.000785216 0 
0.00553011 0.000509071 0 
0.00448099 0.000510228 0 
0.00536635 0.000897352 0 
0.00261905 -0.000109242 0 
0.00455957 0.000208567 0 
0.00448332 -0.00042064 0 
0.00356354 -4.71863e-06 0 
0.00457416 -0.000112317 0 
0.0035239 -0.000226964 0 
-0.00174177 -0.000746625 0 
-0.00368229 -0.00106443 0 
-0.00360604 -0.000435227 0 
-0.00268626 -0.000851148 0 
-0.00369688 -0.00074355 0 
-0.00264662 -0.000628903 0 
0.00489911 0.00396193 0 
0.00351017 0.00212623 0 
0.0028761 0.00221115 0 
0.00423623 0.00295732 0 
0.00320779 0.0022016 0 
0.00382484 0.00303665 0 
-0.00402183 -0.00481779 0 
-0.0026329 -0.0029821 0 
-0.00199882 -0.00306702 0 
-0.00335896 -0.00381319 0 
-0.00233051 -0.00305746 0 
-0.00294756 -0.00389252 0 
-0.00434353 0.00360886 0 
-0.00238872 0.00178821 0 
-0.00295935 0.00167243 0 
-0.00330336 0.00264864 0 
-0.00268869 0.00176322 0 
-0.00368303 0.00255388 0 
0.00522081 -0.00446473 0 
0.003266 -0.00264407 0 
0.00383663 -0.00252829 0 
0.00418064 -0.00350451 0 
0.00356597 -0.00261909 0 
0.00456031 -0.00340975 0 
0.00489911 0.00396193 0 
0.0028761 0.00221115 0 
0.00282393 0.00281971 0 
0.00382484 0.00303665 0 
0.00288576 0.00252715 0 
0.00377856 0.003443 0 
-0.00434353 0.00360886 0 
-0.00237196 0.00245909 0 
-0.00238872 0.00178821 0 
-0.00327479 0.00308615 0 
-0.00241609 0.00213537 0 
-0.00330336 0.00264864 0 
-0.00402183 -0.00481779 0 
-0.00199882 -0.00306702 0 
-0.00194665 -0.00367558 0 
-0.00294756 -0.00389252 0 
-0.00200848 -0.00338302 0 
-0.00290128 -0.00429886 0 
0.00522081 -0.00446473 0 
0.00324923 -0.00331495 0 
0.003266 -0.00264407 0 
0.00415207 -0.00394202 0 
0.00329336 -0.00299123 0 
0.00418064 -0.00350451 0 
0.00261905 -0.000109242 0 
0.0025548 0.00018357 0 
0.00455957 0.000208567 0 
0.00262403 4.02074e-05 0 
0.00351561 0.000222181 0 
0.00356354 -4.71863e-06 0 
-0.00167752 -0.00103944 0 
-0.00368229 -0.00106443 0 
-0.00174177 -0.000746625 0 
-0.00263833 -0.00107805 0 
-0.00268626 -0.000851148 0 
-0.00174675 -0.000896074 0 
0.00669195 -0.000190329 0 
0.0066297 -0.00134145 0 
0.00448332 -0.00042064 0 
0.00674788 -0.00077251 0 
0.00554136 -0.000792084 0 
0.00553818 -0.000354175 0 
-0.00575242 0.000485579 0 
-0.00360604 -0.000435227 0 
-0.00581467 -0.000665538 0 
-0.00466408 -6.37825e-05 0 
-0.00466091 -0.000501692 0 
-0.0058706 -8.33573e-05 0 
-0.00213333 -0.00613425 0 
-0.0015235 -0.00414542 0 
-0.00086019 -0.0042308 0 
-0.00186836 -0.00508045 0 
-0.0012069 -0.0042382 0 
-0.00143246 -0.00515653 0 
0.00301061 0.00527839 0 
0.00240078 0.00328956 0 
0.00173747 0.00337494 0 
0.00274564 0.00422458 0 
0.00208417 0.00338233 0 
0.00230974 0.00430066 0 
-0.00256084 0.00506543 0 