# vtk DataFile Version 3.0
TPZGeoMesh VTK Visualization
ASCII

DATASET UNSTRUCTURED_GRID
POINTS 396 float
30 0 0 
27.9742 10.8372 0 
28.9871 5.41862 0 
27.9742 10.8372 0 
22.1703 20.2109 0 
25.0722 15.5241 0 
22.1703 20.2109 0 
13.3722 26.8549 0 
17.7712 23.5329 0 
13.3722 26.8549 0 
2.76805 29.872 0 
8.0701 28.3635 0 
2.76805 29.872 0 
-8.20989 28.8548 0 
-2.72092 29.3634 0 
-8.20989 28.8548 0 
-18.079 23.9405 0 
-13.1445 26.3976 0 
-18.079 23.9405 0 
-25.5065 15.793 0 
-21.7928 19.8667 0 
-25.5065 15.793 0 
-29.4892 5.51249 0 
-27.4979 10.6527 0 
-29.4892 5.51249 0 
-29.4892 -5.51249 0 
-29.4892 -1.59872e-14 0 
-29.4892 -5.51249 0 
-25.5065 -15.793 0 
-27.4979 -10.6527 0 
-25.5065 -15.793 0 
-18.079 -23.9405 0 
-21.7928 -19.8667 0 
-18.079 -23.9405 0 
-8.20989 -28.8548 0 
-13.1445 -26.3976 0 
-8.20989 -28.8548 0 
2.76805 -29.872 0 
-2.72092 -29.3634 0 
2.76805 -29.872 0 
13.3722 -26.8549 0 
8.0701 -28.3635 0 
13.3722 -26.8549 0 
22.1703 -20.2109 0 
17.7712 -23.5329 0 
22.1703 -20.2109 0 
27.9742 -10.8372 0 
25.0722 -15.5241 0 
27.9742 -10.8372 0 
30 0 0 
28.9871 -5.41862 0 
40 0 0 
38.5167 10.7919 0 
39.2583 5.39594 0 
38.5167 10.7919 0 
34.1768 20.7834 0 
36.3467 15.7876 0 
34.1768 20.7834 0 
27.3021 29.2334 0 
30.7395 25.0084 0 
27.3021 29.2334 0 
18.4026 35.5154 0 
22.8524 32.3744 0 
18.4026 35.5154 0 
8.13824 39.1634 0 
13.2704 37.3394 0 
8.13824 39.1634 0 
-2.7297 39.9068 0 
2.70427 39.5351 0 
-2.7297 39.9068 0 
-13.3952 37.6904 0 
-8.06244 38.7986 0 
-13.3952 37.6904 0 
-23.0672 32.6788 0 
-18.2312 35.1846 0 
-23.0672 32.6788 0 
-31.0285 25.2435 0 
-27.0478 28.9612 0 
-31.0285 25.2435 0 
-36.6885 15.936 0 
-33.8585 20.5898 0 
-36.6885 15.936 0 
-39.6274 5.44667 0 
-38.1579 10.6914 0 
-39.6274 5.44667 0 
-39.6274 -5.44667 0 
-39.6274 4.88498e-15 0 
-39.6274 -5.44667 0 
-36.6885 -15.936 0 
-38.1579 -10.6914 0 
-36.6885 -15.936 0 
-31.0285 -25.2435 0 
-33.8585 -20.5898 0 
-31.0285 -25.2435 0 
-23.0672 -32.6788 0 
-27.0478 -28.9612 0 
-23.0672 -32.6788 0 
-13.3952 -37.6904 0 
-18.2312 -35.1846 0 
-13.3952 -37.6904 0 
-2.7297 -39.9068 0 
-8.06244 -38.7986 0 
-2.7297 -39.9068 0 
8.13824 -39.1634 0 
2.70427 -39.5351 0 
8.13824 -39.1634 0 
18.4026 -35.5154 0 
13.2704 -37.3394 0 
18.4026 -35.5154 0 
27.3021 -29.2334 0 
22.8524 -32.3744 0 
27.3021 -29.2334 0 
34.1768 -20.7834 0 
30.7395 -25.0084 0 
34.1768 -20.7834 0 
38.5167 -10.7919 0 
36.3467 -15.7876 0 
38.5167 -10.7919 0 
40 0 0 
39.2583 -5.39594 0 
13.3722 26.8549 0 
27.3021 29.2334 0 
18.4026 35.5154 0 
20.3371 28.0442 0 
22.8524 32.3744 0 
15.8874 31.1852 0 
13.3722 -26.8549 0 
18.4026 -35.5154 0 
27.3021 -29.2334 0 
15.8874 -31.1852 0 
22.8524 -32.3744 0 
20.3371 -28.0442 0 
13.3722 26.8549 0 
22.1703 20.2109 0 
27.3021 29.2334 0 
17.7712 23.5329 0 
24.7362 24.7222 0 
20.3371 28.0442 0 
13.3722 -26.8549 0 
27.3021 -29.2334 0 
22.1703 -20.2109 0 
20.3371 -28.0442 0 
24.7362 -24.7222 0 
17.7712 -23.5329 0 
30 0 0 
38.5167 -10.7919 0 
40 0 0 
34.2583 -5.39594 0 
39.2583 -5.39594 0 
35 0 0 
30 0 0 
40 0 0 
38.5167 10.7919 0 
35 0 0 
39.2583 5.39594 0 
34.2583 5.39594 0 
27.9742 -10.8372 0 
38.5167 -10.7919 0 
30 0 0 
33.2454 -10.8146 0 
34.2583 -5.39594 0 
28.9871 -5.41862 0 
27.9742 10.8372 0 
30 0 0 
38.5167 10.7919 0 
28.9871 5.41862 0 
34.2583 5.39594 0 
33.2454 10.8146 0 
8.13824 -39.1634 0 
18.4026 -35.5154 0 
13.3722 -26.8549 0 
13.2704 -37.3394 0 
15.8874 -31.1852 0 
10.7552 -33.0091 0 
8.13824 39.1634 0 
13.3722 26.8549 0 
18.4026 35.5154 0 
10.7552 33.0091 0 
15.8874 31.1852 0 
13.2704 37.3394 0 
2.76805 -29.872 0 
8.13824 -39.1634 0 
13.3722 -26.8549 0 
5.45315 -34.5177 0 
10.7552 -33.0091 0 
8.0701 -28.3635 0 
2.76805 29.872 0 
13.3722 26.8549 0 
8.13824 39.1634 0 
8.0701 28.3635 0 
10.7552 33.0091 0 
5.45315 34.5177 0 
-31.0285 25.2435 0 
-18.079 23.9405 0 
-23.0672 32.6788 0 
-24.5537 24.592 0 
-20.5731 28.3097 0 
-27.0478 28.9612 0 
-31.0285 -25.2435 0 
-23.0672 -32.6788 0 
-18.079 -23.9405 0 
-27.0478 -28.9612 0 
-20.5731 -28.3097 0 
-24.5537 -24.592 0 
-31.0285 25.2435 0 
-25.5065 15.793 0 
-18.079 23.9405 0 
-28.2675 20.5182 0 
-21.7928 19.8667 0 
-24.5537 24.592 0 
-31.0285 -25.2435 0 
-18.079 -23.9405 0 
-25.5065 -15.793 0 
-24.5537 -24.592 0 
-21.7928 -19.8667 0 
-28.2675 -20.5182 0 
-39.6274 5.44667 0 
-29.4892 5.51249 0 
-36.6885 15.936 0 
-34.5583 5.47958 0 
-33.0888 10.7243 0 
-38.1579 10.6914 0 
-39.6274 -5.44667 0 
-36.6885 -15.936 0 
-29.4892 -5.51249 0 
-38.1579 -10.6914 0 
-33.0888 -10.7243 0 
-34.5583 -5.47958 0 
-36.6885 15.936 0 
-29.4892 5.51249 0 
-25.5065 15.793 0 
-33.0888 10.7243 0 
-27.4979 10.6527 0 
-31.0975 15.8645 0 
-36.6885 -15.936 0 
-25.5065 -15.793 0 
-29.4892 -5.51249 0 
-31.0975 -15.8645 0 
-27.4979 -10.6527 0 
-33.0888 -10.7243 0 
-8.20989 -28.8548 0 
-2.7297 -39.9068 0 
2.76805 -29.872 0 
-5.46979 -34.3808 0 
0.0191771 -34.8894 0 
-2.72092 -29.3634 0 
-8.20989 28.8548 0 
2.76805 29.872 0 
-2.7297 39.9068 0 
-2.72092 29.3634 0 
0.0191771 34.8894 0 
-5.46979 34.3808 0 
22.1703 20.2109 0 
27.9742 10.8372 0 
34.1768 20.7834 0 
25.0722 15.5241 0 
31.0755 15.8103 0 
28.1735 20.4971 0 
22.1703 -20.2109 0 
34.1768 -20.7834 0 
27.9742 -10.8372 0 
28.1735 -20.4971 0 
31.0755 -15.8103 0 
25.0722 -15.5241 0 
-13.3952 -37.6904 0 
-2.7297 -39.9068 0 
-8.20989 -28.8548 0 
-8.06244 -38.7986 0 
-5.46979 -34.3808 0 
-10.8025 -33.2726 0 
-13.3952 37.6904 0 
-8.20989 28.8548 0 
-2.7297 39.9068 0 
-10.8025 33.2726 0 
-5.46979 34.3808 0 
-8.06244 38.7986 0 
22.1703 20.2109 0 
34.1768 20.7834 0 
27.3021 29.2334 0 
28.1735 20.4971 0 
30.7395 25.0084 0 
24.7362 24.7222 0 
22.1703 -20.2109 0 
27.3021 -29.2334 0 
34.1768 -20.7834 0 
24.7362 -24.7222 0 
30.7395 -25.0084 0 
28.1735 -20.4971 0 
27.9742 -10.8372 0 
34.1768 -20.7834 0 
38.5167 -10.7919 0 
31.0755 -15.8103 0 
36.3467 -15.7876 0 
33.2454 -10.8146 0 
27.9742 10.8372 0 
38.5167 10.7919 0 
34.1768 20.7834 0 
33.2454 10.8146 0 
36.3467 15.7876 0 
31.0755 15.8103 0 
-2.7297 -39.9068 0 
8.13824 -39.1634 0 
2.76805 -29.872 0 
2.70427 -39.5351 0 
5.45315 -34.5177 0 
0.0191771 -34.8894 0 
-2.7297 39.9068 0 
2.76805 29.872 0 
8.13824 39.1634 0 
0.0191771 34.8894 0 
5.45315 34.5177 0 
2.70427 39.5351 0 
-36.6885 -15.936 0 
-31.0285 -25.2435 0 
-25.5065 -15.793 0 
-33.8585 -20.5898 0 
-28.2675 -20.5182 0 
-31.0975 -15.8645 0 
-36.6885 15.936 0 
-25.5065 15.793 0 
-31.0285 25.2435 0 
-31.0975 15.8645 0 
-28.2675 20.5182 0 
-33.8585 20.5898 0 
-29.4892 5.51249 0 
-34.5583 -5.31712e-15 0 
-29.4892 -5.51249 0 
-32.0238 2.75624 0 
-32.0238 -2.75624 0 
-29.4892 -1.59872e-14 0 
-8.20989 28.8548 0 
-16.0166 30.9107 0 
-18.079 23.9405 0 
-12.1133 29.8827 0 
-17.0478 27.4256 0 
-13.1445 26.3976 0 
-18.079 -23.9405 0 
-16.0166 -30.9107 0 
-8.20989 -28.8548 0 
-17.0478 -27.4256 0 
-12.1133 -29.8827 0 
-13.1445 -26.3976 0 
-13.3952 37.6904 0 
-23.0672 32.6788 0 
-16.0166 30.9107 0 
-18.2312 35.1846 0 
-19.5419 31.7947 0 
-14.7059 34.3006 0 
-23.0672 -32.6788 0 
-13.3952 -37.6904 0 
-16.0166 -30.9107 0 
-18.2312 -35.1846 0 
-14.7059 -34.3006 0 
-19.5419 -31.7947 0 
-39.6274 5.44667 0 
-39.6274 -5.44667 0 
-34.5583 -5.31712e-15 0 
-39.6274 4.88498e-15 0 
-37.0929 -2.72333 0 
-37.0929 2.72333 0 
-8.20989 28.8548 0 
-13.3952 37.6904 0 
-16.0166 30.9107 0 
-10.8025 33.2726 0 
-14.7059 34.3006 0 
-12.1133 29.8827 0 
-8.20989 -28.8548 0 
-16.0166 -30.9107 0 
-13.3952 -37.6904 0 
-12.1133 -29.8827 0 
-14.7059 -34.3006 0 
-10.8025 -33.2726 0 
-29.4892 -5.51249 0 
-34.5583 -5.31712e-15 0 
-39.6274 -5.44667 0 
-32.0238 -2.75624 0 
-37.0929 -2.72333 0 
-34.5583 -5.47958 0 
-29.4892 5.51249 0 
-39.6274 5.44667 0 
-34.5583 -5.31712e-15 0 
-34.5583 5.47958 0 
-37.0929 2.72333 0 
-32.0238 2.75624 0 
-18.079 -23.9405 0 
-23.0672 -32.6788 0 
-16.0166 -30.9107 0 
-20.5731 -28.3097 0 
-19.5419 -31.7947 0 
-17.0478 -27.4256 0 
-18.079 23.9405 0 
-16.0166 30.9107 0 
-23.0672 32.6788 0 
-17.0478 27.4256 0 
-19.5419 31.7947 0 
-20.5731 28.3097 0 
CELLS 86 482
3 0 1 2
3 3 4 5
3 6 7 8
3 9 10 11
3 12 13 14
3 15 16 17
3 18 19 20
3 21 22 23
3 24 25 26
3 27 28 29
3 30 31 32
3 33 34 35
3 36 37 38
3 39 40 41
3 42 43 44
3 45 46 47
3 48 49 50
3 51 52 53
3 54 55 56
3 57 58 59
3 60 61 62
3 63 64 65
3 66 67 68
3 69 70 71
3 72 73 74
3 75 76 77
3 78 79 80
3 81 82 83
3 84 85 86
3 87 88 89
3 90 91 92
3 93 94 95
3 96 97 98
3 99 100 101
3 102 103 104
3 105 106 107
3 108 109 110
3 111 112 113
3 114 115 116
3 117 118 119
6 120 121 122 123 124 125
6 126 127 128 129 130 131
6 132 133 134 135 136 137
6 138 139 140 141 142 143
6 144 145 146 147 148 149
6 150 151 152 153 154 155
6 156 157 158 159 160 161
6 162 163 164 165 166 167
6 168 169 170 171 172 173
6 174 175 176 177 178 179
6 180 181 182 183 184 185
6 186 187 188 189 190 191
6 192 193 194 195 196 197
6 198 199 200 201 202 203
6 204 205 206 207 208 209
6 210 211 212 213 214 215
6 216 217 218 219 220 221
6 222 223 224 225 226 227
6 228 229 230 231 232 233
6 234 235 236 237 238 239
6 240 241 242 243 244 245
6 246 247 248 249 250 251
6 252 253 254 255 256 257
6 258 259 260 261 262 263
6 264 265 266 267 268 269
6 270 271 272 273 274 275
6 276 277 278 279 280 281
6 282 283 284 285 286 287
6 288 289 290 291 292 293
6 294 295 296 297 298 299
6 300 301 302 303 304 305
6 306 307 308 309 310 311
6 312 313 314 315 316 317
6 318 319 320 321 322 323
6 324 325 326 327 328 329
6 330 331 332 333 334 335
6 336 337 338 339 340 341
6 342 343 344 345 346 347
6 348 349 350 351 352 353
6 354 355 356 357 358 359
6 360 361 362 363 364 365
6 366 367 368 369 370 371
6 372 373 374 375 376 377
6 378 379 380 381 382 383
6 384 385 386 387 388 389
6 390 391 392 393 394 395

CELL_TYPES 86
21
21
21
21
21
21
21
21
21
21
21
21
21
21
21
21
21
21
21
21
21
21
21
21
21
21
21
21
21
21
21
21
21
21
21
21
21
21
21
21
22
22
22
22
22
22
22
22
22
22
22
22
22
22
22
22
22
22
22
22
22
22
22
22
22
22
22
22
22
22
22
22
22
22
22
22
22
22
22
22
22
22
22
22
22
22

CELL_DATA 86
FIELD FieldData 2
material 1 86 int
2
2
2
2
2
2
2
2
2
2
2
2
2
2
2
2
2
3
3
3
3
3
3
3
3
3
3
3
3
3
3
3
3
3
3
3
3
3
3
3
1
1
1
1
1
1
1
1
1
1
1
1
1
1
1
1
1
1
1
1
1
1
1
1
1
1
1
1
1
1
1
1
1
1
1
1
1
1
1
1
1
1
1
1
1
1
elindex 1 86 int
0
1
2
3
4
5
6
7
8
9
10
11
12
13
14
15
16
17
18
19
20
21
22
23
24
25
26
27
28
29
30
31
32
33
34
35
36
37
38
39
40
41
42
43
44
45
46
47
48
49
50
51
52
53
54
55
56
57
58
59
60
61
62
63
64
65
66
67
68
69
70
71
72
73
74
75
76
77
78
79
80
81
82
83
84
85
POINT_DATA 396
VECTORS Displacement float
0.00757169 0.0133311 0 
0.00803557 0.0123081 0 
0.0078742 0.0111322 0 
0.00646728 0.0152759 0 
0.00729837 0.014474 0 
0.00757169 0.0133311 0 
0.00473261 0.0166513 0 
0.00580736 0.016205 0 
0.00646728 0.0152759 0 
0.00262781 0.0173515 0 
0.00375484 0.0173182 0 
0.00473261 0.0166513 0 
0.00041511 0.0172113 0 
0.0014944 0.0176101 0 
0.00262781 0.0173515 0 
-0.00163496 0.0162911 0 
-0.000758556 0.01705 0 
0.00041511 0.0172113 0 
-0.00319888 0.0147293 0 
-0.00266518 0.0157226 0 
-0.00163496 0.0162911 0 
-0.00406091 0.0126935 0 
-0.00393438 0.0138368 0 
-0.00319888 0.0147293 0 
-0.00414251 0.0104516 0 
-0.00443628 0.0115726 0 
-0.00406091 0.0126935 0 
-0.00343268 0.00835688 0 
-0.00409209 0.00927884 0 
-0.00414251 0.0104516 0 
-0.00198938 0.00668505 0 
-0.00295929 0.00730853 0 
-0.00343268 0.00835688 0 
-1.20642e-05 0.00561875 0 
-0.00114935 0.00585318 0 
-0.00198938 0.00668505 0 
0.00218558 0.00531607 0 
0.0010597 0.00513868 0 
-1.20642e-05 0.00561875 0 
0.00433504 0.00585924 0 
0.00333494 0.00527088 0 
0.00218558 0.00531607 0 
0.00616807 0.00710443 0 
0.00545897 0.00624041 0 
0.00433504 0.00585924 0 
0.00741125 0.00896328 0 
0.00706855 0.00786337 0 
0.00616807 0.00710443 0 
0.0078742 0.0111322 0 
0.00795536 0.00997128 0 
0.00741125 0.00896328 0 
0.0037883 0.0110582 0 
0.0039812 0.0113473 0 
0.00383663 0.0116077 0 
0.00383663 0.0116077 0 
0.0039057 0.0119265 0 
0.00371192 0.012142 0 
0.00371192 0.012142 0 
0.00367329 0.0124665 0 
0.00341889 0.0125992 0 
0.00341889 0.0125992 0 
0.00330198 0.0129191 0 
0.00299982 0.0129443 0 
0.00299982 0.0129443 0 
0.00282943 0.0132442 0 
0.00253237 0.0132367 0 
0.00253237 0.0132367 0 
0.00227785 0.0134362 0 
0.00199866 0.0133544 0 
0.00199866 0.0133544 0 
0.00170084 0.0134692 0 
0.00148314 0.0133027 0 
0.00148314 0.0133027 0 
0.00112385 0.0133692 0 
0.00093547 0.0131117 0 
0.00093547 0.0131117 0 
0.00060969 0.0130978 0 
0.000475697 0.0128414 0 
0.000475697 0.0128414 0 
0.000176225 0.0127063 0 
0.000118652 0.0124218 0 
0.000118652 0.0124218 0 
-0.000125208 0.0122081 0 
-7.33846e-05 0.0119356 0 
-7.33846e-05 0.0119356 0 
-0.000297243 0.0116476 0 
-0.000154019 0.0113595 0 
-0.000154019 0.0113595 0 
-0.000283486 0.0110654 0 
-0.00011727 0.0108299 0 
-0.00011727 0.0108299 0 
-0.000128592 0.0105035 0 
0.000101984 0.0103264 0 
0.000101984 0.0103264 0 
0.000180941 0.0100112 0 
0.000451684 0.0099383 0 
0.000451684 0.0099383 0 
0.000602971 0.00960929 0 
0.00092516 0.00960413 0 
0.00092516 0.00960413 0 
0.00112646 0.00935869 0 
0.00140787 0.00939453 0 
0.00140787 0.00939453 0 
0.00169256 0.00923235 0 
0.00195259 0.00935139 0 
0.00195259 0.00935139 0 
0.00227665 0.00926792 0 
0.00247404 0.00949182 0 
0.00247404 0.00949182 0 
0.0028227 0.00945112 0 
0.00298611 0.00970515 0 
0.00298611 0.00970515 0 
0.00330306 0.00978696 0 
0.00340423 0.0100606 0 
0.00340423 0.0100606 0 
0.00367198 0.0102439 0 
0.00367687 0.0105306 0 
0.00367687 0.0105306 0 
0.00390132 0.01078 0 
0.0037883 0.0110582 0 
0.00473261 0.0166513 0 
0.00341889 0.0125992 0 
0.00299982 0.0129443 0 
0.0043757 0.0144108 0 
0.00330198 0.0129191 0 
0.00381265 0.014642 0 
0.00433504 0.00585924 0 
0.00247404 0.00949182 0 
0.00298611 0.00970515 0 
0.00335097 0.00783134 0 
0.0028227 0.00945112 0 
0.00396053 0.00799664 0 
0.00473261 0.0166513 0 
0.00646728 0.0152759 0 
0.00341889 0.0125992 0 
0.00580736 0.016205 0 
0.00474444 0.0138836 0 
0.0043757 0.0144108 0 
0.00433504 0.00585924 0 
0.00298611 0.00970515 0 
0.00616807 0.00710443 0 
0.00396053 0.00799664 0 
0.00437844 0.00845877 0 
0.00545897 0.00624041 0 
0.0078742 0.0111322 0 
0.00367687 0.0105306 0 
0.0037883 0.0110582 0 
0.00569997 0.0104894 0 
0.00390132 0.01078 0 
0.00566786 0.0110952 0 
0.0078742 0.0111322 0 
0.0037883 0.0110582 0 
0.00383663 0.0116077 0 
0.00566786 0.0110952 0 
0.0039812 0.0113473 0 
0.00577986 0.0117119 0 
0.00741125 0.00896328 0 
0.00367687 0.0105306 0 
0.0078742 0.0111322 0 
0.00541729 0.00991863 0 
0.00569997 0.0104894 0 
0.00795536 0.00997128 0 
0.00757169 0.0133311 0 
0.0078742 0.0111322 0 
0.00383663 0.0116077 0 
0.00803557 0.0123081 0 
0.00577986 0.0117119 0 
0.00557739 0.0122977 0 
0.00195259 0.00935139 0 
0.00247404 0.00949182 0 
0.00433504 0.00585924 0 
0.00227665 0.00926792 0 
0.00335097 0.00783134 0 
0.00281837 0.00754406 0 
0.00253237 0.0132367 0 
0.00473261 0.0166513 0 
0.00299982 0.0129443 0 
0.00330705 0.0150053 0 
0.00381265 0.014642 0 
0.00282943 0.0132442 0 
0.00218558 0.00531607 0 
0.00195259 0.00935139 0 
0.00433504 0.00585924 0 
0.00218654 0.0075217 0 
0.00281837 0.00754406 0 
0.00333494 0.00527088 0 
0.00262781 0.0173515 0 
0.00473261 0.0166513 0 
0.00253237 0.0132367 0 
0.00375484 0.0173182 0 
0.00330705 0.0150053 0 
0.00269755 0.0151061 0 
0.000475697 0.0128414 0 
-0.00163496 0.0162911 0 
0.00093547 0.0131117 0 
-0.000749488 0.0143074 0 
-0.000195442 0.0146022 0 
0.00060969 0.0130978 0 
0.000101984 0.0103264 0 
0.000451684 0.0099383 0 
-0.00198938 0.00668505 0 
0.000180941 0.0100112 0 
-0.000614546 0.00841087 0 
-0.00111356 0.00876466 0 
0.000475697 0.0128414 0 
-0.00319888 0.0147293 0 
-0.00163496 0.0162911 0 
-0.00113542 0.0138268 0 
-0.00266518 0.0157226 0 
-0.000749488 0.0143074 0 
0.000101984 0.0103264 0 
-0.00198938 0.00668505 0 
-0.00343268 0.00835688 0 
-0.00111356 0.00876466 0 
-0.00295929 0.00730853 0 
-0.00143917 0.00930022 0 
-7.33846e-05 0.0119356 0 
-0.00406091 0.0126935 0 
0.000118652 0.0124218 0 
-0.00191448 0.0122009 0 
-0.00180678 0.0128014 0 
-0.000125208 0.0122081 0 
-0.000154019 0.0113595 0 
-0.00011727 0.0108299 0 
-0.00414251 0.0104516 0 
-0.000283486 0.0110654 0 
-0.00196555 0.010397 0 
-0.0019956 0.0110193 0 
0.000118652 0.0124218 0 
-0.00406091 0.0126935 0 
-0.00319888 0.0147293 0 
-0.00180678 0.0128014 0 
-0.00393438 0.0138368 0 
-0.00149219 0.0133397 0 
-0.00011727 0.0108299 0 
-0.00343268 0.00835688 0 
-0.00414251 0.0104516 0 
-0.00172705 0.00982921 0 
-0.00409209 0.00927884 0 
-0.00196555 0.010397 0 
-1.20642e-05 0.00561875 0 
0.00140787 0.00939453 0 
0.00218558 0.00531607 0 
0.000973396 0.00756256 0 
0.00158554 0.00749544 0 
0.0010597 0.00513868 0 
0.00041511 0.0172113 0 
0.00262781 0.0173515 0 
0.00199866 0.0133544 0 
0.0014944 0.0176101 0 
0.00210205 0.0152128 0 
0.00148238 0.015227 0 
0.00646728 0.0152759 0 
0.00757169 0.0133311 0 
0.00371192 0.012142 0 
0.00729837 0.014474 0 
0.00542042 0.0128846 0 
0.00514404 0.0134342 0 
0.00616807 0.00710443 0 
0.00340423 0.0100606 0 
0.00741125 0.00896328 0 
0.00484059 0.00885729 0 
0.00518636 0.00936393 0 
0.00706855 0.00786337 0 
0.00092516 0.00960413 0 
0.00140787 0.00939453 0 
-1.20642e-05 0.00561875 0 
0.00112646 0.00935869 0 
0.000973396 0.00756256 0 
0.00040215 0.00780336 0 
0.00148314 0.0133027 0 
0.00041511 0.0172113 0 
0.00199866 0.0133544 0 
0.000894727 0.0150651 0 
0.00148238 0.015227 0 
0.00170084 0.0134692 0 
0.00646728 0.0152759 0 
0.00371192 0.012142 0 
0.00341889 0.0125992 0 
0.00514404 0.0134342 0 
0.00367329 0.0124665 0 
0.00474444 0.0138836 0 
0.00616807 0.00710443 0 
0.00298611 0.00970515 0 
0.00340423 0.0100606 0 
0.00437844 0.00845877 0 
0.00330306 0.00978696 0 
0.00484059 0.00885729 0 
0.00741125 0.00896328 0 
0.00340423 0.0100606 0 
0.00367687 0.0105306 0 
0.00518636 0.00936393 0 
0.00367198 0.0102439 0 
0.00541729 0.00991863 0 
0.00757169 0.0133311 0 
0.00383663 0.0116077 0 
0.00371192 0.012142 0 
0.00557739 0.0122977 0 
0.0039057 0.0119265 0 
0.00542042 0.0128846 0 
0.00140787 0.00939453 0 
0.00195259 0.00935139 0 
0.00218558 0.00531607 0 
0.00169256 0.00923235 0 
0.00218654 0.0075217 0 
0.00158554 0.00749544 0 
0.00199866 0.0133544 0 
0.00262781 0.0173515 0 
0.00253237 0.0132367 0 
0.00210205 0.0152128 0 
0.00269755 0.0151061 0 
0.00227785 0.0134362 0 
-0.00011727 0.0108299 0 
0.000101984 0.0103264 0 
-0.00343268 0.00835688 0 
-0.000128592 0.0105035 0 
-0.00143917 0.00930022 0 
-0.00172705 0.00982921 0 
0.000118652 0.0124218 0 
-0.00319888 0.0147293 0 
0.000475697 0.0128414 0 
-0.00149219 0.0133397 0 
-0.00113542 0.0138268 0 
0.000176225 0.0127063 0 
-0.00406091 0.0126935 0 
-0.00217164 0.0116101 0 
-0.00414251 0.0104516 0 
-0.00314735 0.0120282 0 
-0.00318816 0.0111545 0 
-0.00443628 0.0115726 0 
0.00041511 0.0172113 0 
0.000275003 0.0149254 0 
-0.00163496 0.0162911 0 
0.000200744 0.0160427 0 
-0.000575762 0.0156722 0 
-0.000758556 0.01705 0 
-0.00198938 0.00668505 0 
-0.000182608 0.00802029 0 
-1.20642e-05 0.00561875 0 
-0.000981778 0.00728869 0 
-0.000241649 0.00684522 0 
-0.00114935 0.00585318 0 
0.00148314 0.0133027 0 
0.00093547 0.0131117 0 
0.000275003 0.0149254 0 
0.00112385 0.0133692 0 
0.000538759 0.0139955 0 
0.000935242 0.0141537 0 
0.000451684 0.0099383 0 
0.00092516 0.00960413 0 
-0.000182608 0.00802029 0 
0.000602971 0.00960929 0 
0.000427447 0.00877254 0 
6.80603e-05 0.00900235 0 
-7.33846e-05 0.0119356 0 
-0.000154019 0.0113595 0 
-0.00217164 0.0116101 0 
-0.000297243 0.0116476 0 
-0.00116862 0.0114126 0 
-0.00112831 0.011845 0 
0.00041511 0.0172113 0 
0.00148314 0.0133027 0 
0.000275003 0.0149254 0 
0.000894727 0.0150651 0 
0.000935242 0.0141537 0 
0.000200744 0.0160427 0 
-1.20642e-05 0.00561875 0 
-0.000182608 0.00802029 0 
0.00092516 0.00960413 0 
-0.000241649 0.00684522 0 
0.000427447 0.00877254 0 
0.00040215 0.00780336 0 
-0.00414251 0.0104516 0 
-0.00217164 0.0116101 0 
-0.000154019 0.0113595 0 
-0.00318816 0.0111545 0 
-0.00116862 0.0114126 0 
-0.0019956 0.0110193 0 
-0.00406091 0.0126935 0 
-7.33846e-05 0.0119356 0 
-0.00217164 0.0116101 0 
-0.00191448 0.0122009 0 
-0.00112831 0.011845 0 
-0.00314735 0.0120282 0 
-0.00198938 0.00668505 0 
0.000451684 0.0099383 0 
-0.000182608 0.00802029 0 
-0.000614546 0.00841087 0 
6.80603e-05 0.00900235 0 
-0.000981778 0.00728869 0 
-0.00163496 0.0162911 0 
0.000275003 0.0149254 0 
0.00093547 0.0131117 0 
-0.000575762 0.0156722 0 
0.000538759 0.0139955 0 
-0.000195442 0.0146022 0 
VECTORS Strain float
-0.000403326 0.000132053 -0.000446742 
-0.000452461 0.000175814 -0.000257407 
-0.000501597 0.000219576 -6.80728e-05 
-0.000194323 -8.1178e-05 -0.00070584 
-0.000289587 1.47633e-05 -0.000608362 
-0.000384851 0.000110705 -0.000510884 
4.70809e-05 -0.000330375 -0.000619676 
-5.29826e-05 -0.000224384 -0.000657029 
-0.000153046 -0.000118393 -0.000694382 
0.00020448 -0.000476356 -0.000159959 
0.000153083 -0.000429533 -0.000347824 
0.000101686 -0.000382709 -0.000535689 
0.000177331 -0.000455887 0.000329849 
0.000195744 -0.000471962 0.000119257 
0.000214157 -0.000488038 -9.13348e-05 
-2.19798e-05 -0.000261112 0.000684659 
6.54097e-05 -0.0003498 0.000553226 
0.000152799 -0.000438488 0.000421794 
-0.000277075 4.56586e-06 0.000642332 
-0.000174694 -0.000102301 0.000673706 
-7.23135e-05 -0.000209167 0.00070508 
-0.000462548 0.000182367 0.000310909 
-0.000386127 0.000109397 0.000462199 
-0.000309707 3.64277e-05 0.000613489 
-0.000488229 0.000203352 -0.000218956 
-0.000488229 0.000203352 3.71339e-18 
-0.000488229 0.000203352 0.000218956 
-0.000309707 3.64277e-05 -0.000613489 
-0.000386127 0.000109397 -0.000462199 
-0.000462548 0.000182367 -0.000310909 
-7.23135e-05 -0.000209167 -0.00070508 
-0.000174694 -0.000102301 -0.000673706 
-0.000277075 4.56586e-06 -0.000642332 
0.000152799 -0.000438488 -0.000421794 
6.54097e-05 -0.0003498 -0.000553226 
-2.19798e-05 -0.000261112 -0.000684659 
0.000214157 -0.000488038 9.13348e-05 
0.000195744 -0.000471962 -0.000119257 
0.000177331 -0.000455887 -0.000329849 
0.000101686 -0.000382709 0.000535689 
0.000153083 -0.000429533 0.000347824 
0.00020448 -0.000476356 0.000159959 
-0.000153046 -0.000118393 0.000694382 
-5.29826e-05 -0.000224384 0.000657029 
4.70809e-05 -0.000330375 0.000619676 
-0.000384851 0.000110705 0.000510884 
-0.000289587 1.47633e-05 0.000608362 
-0.000194323 -8.1178e-05 0.00070584 
-0.000501597 0.000219576 6.80728e-05 
-0.000452461 0.000175814 0.000257407 
-0.000403326 0.000132053 0.000446742 
-0.000343237 5.52359e-05 1.24408e-05 
-0.000327055 4.08992e-05 -0.000113394 
-0.000310873 2.65624e-05 -0.00023923 
-0.000306585 3.14976e-05 -0.000191231 
-0.000263851 -1.13495e-05 -0.000276319 
-0.000221117 -5.41965e-05 -0.000361406 
-0.000239131 -3.69333e-05 -0.000345868 
-0.000178902 -9.69333e-05 -0.000365882 
-0.000118673 -0.000156933 -0.000385896 
-0.000144232 -0.000141797 -0.000417163 
-8.45438e-05 -0.000202824 -0.000368423 
-2.4856e-05 -0.00026385 -0.000319684 
-3.43625e-05 -0.000252601 -0.000333529 
8.90058e-06 -0.000293567 -0.000235915 
5.21636e-05 -0.000334534 -0.000138302 
3.8872e-05 -0.000313379 -0.000167329 
4.80673e-05 -0.000322942 -4.81491e-05 
5.72626e-05 -0.000332505 7.10309e-05 
6.05428e-05 -0.000340027 3.63151e-05 
3.16423e-05 -0.000313373 0.000150301 
2.74169e-06 -0.000286718 0.000264286 
2.101e-05 -0.000305739 0.000248134 
-3.0294e-05 -0.000255246 0.000319748 
-8.15981e-05 -0.000204752 0.000391363 
-6.70691e-05 -0.000217734 0.00036166 
-0.000130321 -0.000153133 0.000378343 
-0.000193573 -8.8533e-05 0.000395027 
-0.000170034 -0.000104446 0.000386881 
-0.000223796 -5.07437e-05 0.000332041 
-0.000277557 2.95811e-06 0.000277201 
-0.000271121 -9.50946e-06 0.000310073 
-0.000302282 1.98696e-05 0.000197501 
-0.000333442 4.92488e-05 8.49287e-05 
-0.000338131 5.28858e-05 0.000124354 
-0.000338131 5.28858e-05 2.96462e-18 
-0.000338131 5.28858e-05 -0.000124354 
-0.000333442 4.92488e-05 -8.49287e-05 
-0.000302282 1.98696e-05 -0.000197501 
-0.000271121 -9.50946e-06 -0.000310073 
-0.000277557 2.95811e-06 -0.000277201 
-0.000223796 -5.07437e-05 -0.000332041 
-0.000170034 -0.000104446 -0.000386881 
-0.000193573 -8.8533e-05 -0.000395027 
-0.000130321 -0.000153133 -0.000378343 
-6.70691e-05 -0.000217734 -0.00036166 
-8.15981e-05 -0.000204752 -0.000391363 
-3.0294e-05 -0.000255246 -0.000319748 
2.101e-05 -0.000305739 -0.000248134 
2.74169e-06 -0.000286718 -0.000264286 
3.16423e-05 -0.000313373 -0.000150301 
6.05428e-05 -0.000340027 -3.63151e-05 
5.72626e-05 -0.000332505 -7.10309e-05 
4.80673e-05 -0.000322942 4.81491e-05 
3.8872e-05 -0.000313379 0.000167329 
5.21636e-05 -0.000334534 0.000138302 
8.90058e-06 -0.000293567 0.000235915 
-3.43625e-05 -0.000252601 0.000333529 
-2.4856e-05 -0.00026385 0.000319684 
-8.45438e-05 -0.000202824 0.000368423 
-0.000144232 -0.000141797 0.000417163 
-0.000118673 -0.000156933 0.000385896 
-0.000178902 -9.69333e-05 0.000365882 
-0.000239131 -3.69333e-05 0.000345868 
-0.000221117 -5.41965e-05 0.000361406 
-0.000263851 -1.13495e-05 0.000276319 
-0.000306585 3.14976e-05 0.000191231 
-0.000310873 2.65624e-05 0.00023923 
-0.000327055 4.08992e-05 0.000113394 
-0.000343237 5.52359e-05 -1.24408e-05 
3.35376e-05 -0.00032778 -0.000540803 
-0.000144232 -0.000141797 -0.000417163 
-2.4856e-05 -0.00026385 -0.000319684 
-5.5347e-05 -0.000234789 -0.000478983 
-8.45438e-05 -0.000202824 -0.000368423 
4.34082e-06 -0.000295815 -0.000430243 
3.35376e-05 -0.00032778 0.000540803 
-2.4856e-05 -0.00026385 0.000319684 
-0.000144232 -0.000141797 0.000417163 
4.34082e-06 -0.000295815 0.000430243 
-8.45438e-05 -0.000202824 0.000368423 
-5.5347e-05 -0.000234789 0.000478983 
4.70809e-05 -0.000330375 -0.000619676 
-0.000153046 -0.000118393 -0.000694382 
-0.00015261 -0.000157614 -0.000365397 
-5.29826e-05 -0.000224384 -0.000657029 
-0.000152828 -0.000138004 -0.00052989 
-5.27644e-05 -0.000243995 -0.000492537 
4.70809e-05 -0.000330375 0.000619676 
-0.00015261 -0.000157614 0.000365397 
-0.000153046 -0.000118393 0.000694382 
-5.27644e-05 -0.000243995 0.000492537 
-0.000152828 -0.000138004 0.00052989 
-5.29826e-05 -0.000224384 0.000657029 
-0.000473943 0.000176658 3.5513e-05 
-0.000310873 2.65624e-05 0.00023923 
-0.000343237 5.52359e-05 -1.24408e-05 
-0.000392408 0.00010161 0.000137371 
-0.000327055 4.08992e-05 0.000113394 
-0.00040859 0.000115947 1.15361e-05 
-0.000473943 0.000176658 -3.5513e-05 
-0.000343237 5.52359e-05 1.24408e-05 
-0.000310873 2.65624e-05 -0.00023923 
-0.00040859 0.000115947 -1.15361e-05 
-0.000327055 4.08992e-05 -0.000113394 
-0.000392408 0.00010161 -0.000137371 
-0.000403326 0.000132053 0.000446742 
-0.000306633 -5.07318e-06 0.000202489 
-0.000501597 0.000219576 6.80728e-05 
-0.00035498 6.34897e-05 0.000324616 
-0.000404115 0.000107251 0.000135281 
-0.000452461 0.000175814 0.000257407 
-0.000403326 0.000132053 -0.000446742 
-0.000501597 0.000219576 -6.80728e-05 
-0.000306633 -5.07318e-06 -0.000202489 
-0.000452461 0.000175814 -0.000257407 
-0.000404115 0.000107251 -0.000135281 
-0.00035498 6.34897e-05 -0.000324616 
5.21636e-05 -0.000334534 0.000138302 
-3.43625e-05 -0.000252601 0.000333529 
5.934e-05 -0.000360007 0.000500308 
8.90058e-06 -0.000293567 0.000235915 
1.24888e-05 -0.000306304 0.000416918 
5.57518e-05 -0.00034727 0.000319305 
5.21636e-05 -0.000334534 -0.000138302 
5.934e-05 -0.000360007 -0.000500308 
-3.43625e-05 -0.000252601 -0.000333529 
5.57518e-05 -0.00034727 -0.000319305 
1.24888e-05 -0.000306304 -0.000416918 
8.90058e-06 -0.000293567 -0.000235915 
0.00020448 -0.000476356 0.000159959 
1.21168e-05 -0.000324718 0.000132248 
0.000101686 -0.000382709 0.000535689 
0.000108298 -0.000400537 0.000146103 
5.69016e-05 -0.000353713 0.000333968 
0.000153083 -0.000429533 0.000347824 
0.00020448 -0.000476356 -0.000159959 
0.000101686 -0.000382709 -0.000535689 
1.21168e-05 -0.000324718 -0.000132248 
0.000153083 -0.000429533 -0.000347824 
5.69016e-05 -0.000353713 -0.000333968 
0.000108298 -0.000400537 -0.000146103 
-0.000193573 -8.8533e-05 0.000395027 
-7.83174e-05 -0.00022442 0.000643877 
-6.70691e-05 -0.000217734 0.00036166 
-0.000135945 -0.000156477 0.000519452 
-7.26932e-05 -0.000221077 0.000502769 
-0.000130321 -0.000153133 0.000378343 
-0.000193573 -8.8533e-05 -0.000395027 
-6.70691e-05 -0.000217734 -0.00036166 
-7.83174e-05 -0.00022442 -0.000643877 
-0.000130321 -0.000153133 -0.000378343 
-7.26932e-05 -0.000221077 -0.000502769 
-0.000135945 -0.000156477 -0.000519452 
-0.000197585 -0.000115141 0.000352478 
-0.000277075 4.56586e-06 0.000642332 
-7.23135e-05 -0.000209167 0.00070508 
-0.00023733 -5.52877e-05 0.000497405 
-0.000174694 -0.000102301 0.000673706 
-0.000134949 -0.000162154 0.000528779 
-0.000197585 -0.000115141 -0.000352478 
-7.23135e-05 -0.000209167 -0.00070508 
-0.000277075 4.56586e-06 -0.000642332 
-0.000134949 -0.000162154 -0.000528779 
-0.000174694 -0.000102301 -0.000673706 
-0.00023733 -5.52877e-05 -0.000497405 
-0.000333442 4.92488e-05 8.49287e-05 
-0.000454521 0.000149427 0.00026876 
-0.000271121 -9.50946e-06 0.000310073 