# vtk DataFile Version 3.0
TPZGeoMesh VTK Visualization
ASCII

DATASET UNSTRUCTURED_GRID
POINTS 3360 float
30 0 0 
29.872 2.76805 0 
29.936 1.38403 0 
29.872 2.76805 0 
29.4892 5.51249 0 
29.6806 4.14027 0 
29.4892 5.51249 0 
28.8548 8.20989 0 
29.172 6.86119 0 
28.8548 8.20989 0 
27.9742 10.8372 0 
28.4145 9.52357 0 
27.9742 10.8372 0 
26.8549 13.3722 0 
27.4145 12.1047 0 
26.8549 13.3722 0 
25.5065 15.793 0 
26.1807 14.5826 0 
25.5065 15.793 0 
23.9405 18.079 0 
24.7235 16.936 0 
23.9405 18.079 0 
22.1703 20.2109 0 
23.0554 19.145 0 
22.1703 20.2109 0 
20.2109 22.1703 0 
21.1906 21.1906 0 
20.2109 22.1703 0 
18.079 23.9405 0 
19.145 23.0554 0 
18.079 23.9405 0 
15.793 25.5065 0 
16.936 24.7235 0 
15.793 25.5065 0 
13.3722 26.8549 0 
14.5826 26.1807 0 
13.3722 26.8549 0 
10.8372 27.9742 0 
12.1047 27.4145 0 
10.8372 27.9742 0 
8.20989 28.8548 0 
9.52357 28.4145 0 
8.20989 28.8548 0 
5.51249 29.4892 0 
6.86119 29.172 0 
5.51249 29.4892 0 
2.76805 29.872 0 
4.14027 29.6806 0 
2.76805 29.872 0 
8.49825e-15 30 0 
1.38403 29.936 0 
8.49825e-15 30 0 
-2.76805 29.872 0 
-1.38403 29.936 0 
-2.76805 29.872 0 
-5.51249 29.4892 0 
-4.14027 29.6806 0 
-5.51249 29.4892 0 
-8.20989 28.8548 0 
-6.86119 29.172 0 
-8.20989 28.8548 0 
-10.8372 27.9742 0 
-9.52357 28.4145 0 
-10.8372 27.9742 0 
-13.3722 26.8549 0 
-12.1047 27.4145 0 
-13.3722 26.8549 0 
-15.793 25.5065 0 
-14.5826 26.1807 0 
-15.793 25.5065 0 
-18.079 23.9405 0 
-16.936 24.7235 0 
-18.079 23.9405 0 
-20.2109 22.1703 0 
-19.145 23.0554 0 
-20.2109 22.1703 0 
-22.1703 20.2109 0 
-21.1906 21.1906 0 
-22.1703 20.2109 0 
-23.9405 18.079 0 
-23.0554 19.145 0 
-23.9405 18.079 0 
-25.5065 15.793 0 
-24.7235 16.936 0 
-25.5065 15.793 0 
-26.8549 13.3722 0 
-26.1807 14.5826 0 
-26.8549 13.3722 0 
-27.9742 10.8372 0 
-27.4145 12.1047 0 
-27.9742 10.8372 0 
-28.8548 8.20989 0 
-28.4145 9.52357 0 
-28.8548 8.20989 0 
-29.4892 5.51249 0 
-29.172 6.86119 0 
-29.4892 5.51249 0 
-29.872 2.76805 0 
-29.6806 4.14027 0 
-29.872 2.76805 0 
-30 -2.29715e-14 0 
-29.936 1.38403 0 
-30 -2.29715e-14 0 
-29.872 -2.76805 0 
-29.936 -1.38403 0 
-29.872 -2.76805 0 
-29.4892 -5.51249 0 
-29.6806 -4.14027 0 
-29.4892 -5.51249 0 
-28.8548 -8.20989 0 
-29.172 -6.86119 0 
-28.8548 -8.20989 0 
-27.9742 -10.8372 0 
-28.4145 -9.52357 0 
-27.9742 -10.8372 0 
-26.8549 -13.3722 0 
-27.4145 -12.1047 0 
-26.8549 -13.3722 0 
-25.5065 -15.793 0 
-26.1807 -14.5826 0 
-25.5065 -15.793 0 
-23.9405 -18.079 0 
-24.7235 -16.936 0 
-23.9405 -18.079 0 
-22.1703 -20.2109 0 
-23.0554 -19.145 0 
-22.1703 -20.2109 0 
-20.2109 -22.1703 0 
-21.1906 -21.1906 0 
-20.2109 -22.1703 0 
-18.079 -23.9405 0 
-19.145 -23.0554 0 
-18.079 -23.9405 0 
-15.793 -25.5065 0 
-16.936 -24.7235 0 
-15.793 -25.5065 0 
-13.3722 -26.8549 0 
-14.5826 -26.1807 0 
-13.3722 -26.8549 0 
-10.8372 -27.9742 0 
-12.1047 -27.4145 0 
-10.8372 -27.9742 0 
-8.20989 -28.8548 0 
-9.52357 -28.4145 0 
-8.20989 -28.8548 0 
-5.51249 -29.4892 0 
-6.86119 -29.172 0 
-5.51249 -29.4892 0 
-2.76805 -29.872 0 
-4.14027 -29.6806 0 
-2.76805 -29.872 0 
-5.51073e-15 -30 0 
-1.38403 -29.936 0 
-5.51073e-15 -30 0 
2.76805 -29.872 0 
1.38403 -29.936 0 
2.76805 -29.872 0 
5.51249 -29.4892 0 
4.14027 -29.6806 0 
5.51249 -29.4892 0 
8.20989 -28.8548 0 
6.86119 -29.172 0 
8.20989 -28.8548 0 
10.8372 -27.9742 0 
9.52357 -28.4145 0 
10.8372 -27.9742 0 
13.3722 -26.8549 0 
12.1047 -27.4145 0 
13.3722 -26.8549 0 
15.793 -25.5065 0 
14.5826 -26.1807 0 
15.793 -25.5065 0 
18.079 -23.9405 0 
16.936 -24.7235 0 
18.079 -23.9405 0 
20.2109 -22.1703 0 
19.145 -23.0554 0 
20.2109 -22.1703 0 
22.1703 -20.2109 0 
21.1906 -21.1906 0 
22.1703 -20.2109 0 
23.9405 -18.079 0 
23.0554 -19.145 0 
23.9405 -18.079 0 
25.5065 -15.793 0 
24.7235 -16.936 0 
25.5065 -15.793 0 
26.8549 -13.3722 0 
26.1807 -14.5826 0 
26.8549 -13.3722 0 
27.9742 -10.8372 0 
27.4145 -12.1047 0 
27.9742 -10.8372 0 
28.8548 -8.20989 0 
28.4145 -9.52357 0 
28.8548 -8.20989 0 
29.4892 -5.51249 0 
29.172 -6.86119 0 
29.4892 -5.51249 0 
29.872 -2.76805 0 
29.6806 -4.14027 0 
29.872 -2.76805 0 
30 0 0 
29.936 -1.38403 0 
40 0 0 
39.9068 2.7297 0 
39.9534 1.36485 0 
39.9068 2.7297 0 
39.6274 5.44667 0 
39.7671 4.08818 0 
39.6274 5.44667 0 
39.1634 8.13824 0 
39.3954 6.79245 0 
39.1634 8.13824 0 
38.5167 10.7919 0 
38.84 9.46506 0 
38.5167 10.7919 0 
37.6904 13.3952 0 
38.1036 12.0935 0 
37.6904 13.3952 0 
36.6885 15.936 0 
37.1894 14.6656 0 
36.6885 15.936 0 
35.5154 18.4026 0 
36.1019 17.1693 0 
35.5154 18.4026 0 
34.1768 20.7834 0 
34.8461 19.593 0 
34.1768 20.7834 0 
32.6788 23.0672 0 
33.4278 21.9253 0 
32.6788 23.0672 0 
31.0285 25.2435 0 
31.8536 24.1554 0 
31.0285 25.2435 0 
29.2334 27.3021 0 
30.1309 26.2728 0 
29.2334 27.3021 0 
27.3021 29.2334 0 
28.2678 28.2678 0 
27.3021 29.2334 0 
25.2435 31.0285 0 
26.2728 30.1309 0 
25.2435 31.0285 0 
23.0672 32.6788 0 
24.1554 31.8536 0 
23.0672 32.6788 0 
20.7834 34.1768 0 
21.9253 33.4278 0 
20.7834 34.1768 0 
18.4026 35.5154 0 
19.593 34.8461 0 
18.4026 35.5154 0 
15.936 36.6885 0 
17.1693 36.1019 0 
15.936 36.6885 0 
13.3952 37.6904 0 
14.6656 37.1894 0 
13.3952 37.6904 0 
10.7919 38.5167 0 
12.0935 38.1036 0 
10.7919 38.5167 0 
8.13824 39.1634 0 
9.46506 38.84 0 
8.13824 39.1634 0 
5.44667 39.6274 0 
6.79245 39.3954 0 
5.44667 39.6274 0 
2.7297 39.9068 0 
4.08818 39.7671 0 
2.7297 39.9068 0 
2.44921e-15 40 0 
1.36485 39.9534 0 
2.44921e-15 40 0 
-2.7297 39.9068 0 
-1.36485 39.9534 0 
-2.7297 39.9068 0 
-5.44667 39.6274 0 
-4.08818 39.7671 0 
-5.44667 39.6274 0 
-8.13824 39.1634 0 
-6.79245 39.3954 0 
-8.13824 39.1634 0 
-10.7919 38.5167 0 
-9.46506 38.84 0 
-10.7919 38.5167 0 
-13.3952 37.6904 0 
-12.0935 38.1036 0 
-13.3952 37.6904 0 
-15.936 36.6885 0 
-14.6656 37.1894 0 
-15.936 36.6885 0 
-18.4026 35.5154 0 
-17.1693 36.1019 0 
-18.4026 35.5154 0 
-20.7834 34.1768 0 
-19.593 34.8461 0 
-20.7834 34.1768 0 
-23.0672 32.6788 0 
-21.9253 33.4278 0 
-23.0672 32.6788 0 
-25.2435 31.0285 0 
-24.1554 31.8536 0 
-25.2435 31.0285 0 
-27.3021 29.2334 0 
-26.2728 30.1309 0 
-27.3021 29.2334 0 
-29.2334 27.3021 0 
-28.2678 28.2678 0 
-29.2334 27.3021 0 
-31.0285 25.2435 0 
-30.1309 26.2728 0 
-31.0285 25.2435 0 
-32.6788 23.0672 0 
-31.8536 24.1554 0 
-32.6788 23.0672 0 
-34.1768 20.7834 0 
-33.4278 21.9253 0 
-34.1768 20.7834 0 
-35.5154 18.4026 0 
-34.8461 19.593 0 
-35.5154 18.4026 0 
-36.6885 15.936 0 
-36.1019 17.1693 0 
-36.6885 15.936 0 
-37.6904 13.3952 0 
-37.1894 14.6656 0 
-37.6904 13.3952 0 
-38.5167 10.7919 0 
-38.1036 12.0935 0 
-38.5167 10.7919 0 
-39.1634 8.13824 0 
-38.84 9.46506 0 
-39.1634 8.13824 0 
-39.6274 5.44667 0 
-39.3954 6.79245 0 
-39.6274 5.44667 0 
-39.9068 2.7297 0 
-39.7671 4.08818 0 
-39.9068 2.7297 0 
-40 4.89843e-15 0 
-39.9534 1.36485 0 
-40 4.89843e-15 0 
-39.9068 -2.7297 0 
-39.9534 -1.36485 0 
-39.9068 -2.7297 0 
-39.6274 -5.44667 0 
-39.7671 -4.08818 0 
-39.6274 -5.44667 0 
-39.1634 -8.13824 0 
-39.3954 -6.79245 0 
-39.1634 -8.13824 0 
-38.5167 -10.7919 0 
-38.84 -9.46506 0 
-38.5167 -10.7919 0 
-37.6904 -13.3952 0 
-38.1036 -12.0935 0 
-37.6904 -13.3952 0 
-36.6885 -15.936 0 
-37.1894 -14.6656 0 
-36.6885 -15.936 0 
-35.5154 -18.4026 0 
-36.1019 -17.1693 0 
-35.5154 -18.4026 0 
-34.1768 -20.7834 0 
-34.8461 -19.593 0 
-34.1768 -20.7834 0 
-32.6788 -23.0672 0 
-33.4278 -21.9253 0 
-32.6788 -23.0672 0 
-31.0285 -25.2435 0 
-31.8536 -24.1554 0 
-31.0285 -25.2435 0 
-29.2334 -27.3021 0 
-30.1309 -26.2728 0 
-29.2334 -27.3021 0 
-27.3021 -29.2334 0 
-28.2678 -28.2678 0 
-27.3021 -29.2334 0 
-25.2435 -31.0285 0 
-26.2728 -30.1309 0 
-25.2435 -31.0285 0 
-23.0672 -32.6788 0 
-24.1554 -31.8536 0 
-23.0672 -32.6788 0 
-20.7834 -34.1768 0 
-21.9253 -33.4278 0 
-20.7834 -34.1768 0 
-18.4026 -35.5154 0 
-19.593 -34.8461 0 
-18.4026 -35.5154 0 
-15.936 -36.6885 0 
-17.1693 -36.1019 0 
-15.936 -36.6885 0 
-13.3952 -37.6904 0 
-14.6656 -37.1894 0 
-13.3952 -37.6904 0 
-10.7919 -38.5167 0 
-12.0935 -38.1036 0 
-10.7919 -38.5167 0 
-8.13824 -39.1634 0 
-9.46506 -38.84 0 
-8.13824 -39.1634 0 
-5.44667 -39.6274 0 
-6.79245 -39.3954 0 
-5.44667 -39.6274 0 
-2.7297 -39.9068 0 
-4.08818 -39.7671 0 
-2.7297 -39.9068 0 
-4.28748e-14 -40 0 
-1.36485 -39.9534 0 
-4.28748e-14 -40 0 
2.7297 -39.9068 0 
1.36485 -39.9534 0 
2.7297 -39.9068 0 
5.44667 -39.6274 0 
4.08818 -39.7671 0 
5.44667 -39.6274 0 
8.13824 -39.1634 0 
6.79245 -39.3954 0 
8.13824 -39.1634 0 
10.7919 -38.5167 0 
9.46506 -38.84 0 
10.7919 -38.5167 0 
13.3952 -37.6904 0 
12.0935 -38.1036 0 
13.3952 -37.6904 0 
15.936 -36.6885 0 
14.6656 -37.1894 0 
15.936 -36.6885 0 
18.4026 -35.5154 0 
17.1693 -36.1019 0 
18.4026 -35.5154 0 
20.7834 -34.1768 0 
19.593 -34.8461 0 
20.7834 -34.1768 0 
23.0672 -32.6788 0 
21.9253 -33.4278 0 
23.0672 -32.6788 0 
25.2435 -31.0285 0 
24.1554 -31.8536 0 
25.2435 -31.0285 0 
27.3021 -29.2334 0 
26.2728 -30.1309 0 
27.3021 -29.2334 0 
29.2334 -27.3021 0 
28.2678 -28.2678 0 
29.2334 -27.3021 0 
31.0285 -25.2435 0 
30.1309 -26.2728 0 
31.0285 -25.2435 0 
32.6788 -23.0672 0 
31.8536 -24.1554 0 
32.6788 -23.0672 0 
34.1768 -20.7834 0 
33.4278 -21.9253 0 
34.1768 -20.7834 0 
35.5154 -18.4026 0 
34.8461 -19.593 0 
35.5154 -18.4026 0 
36.6885 -15.936 0 
36.1019 -17.1693 0 
36.6885 -15.936 0 
37.6904 -13.3952 0 
37.1894 -14.6656 0 
37.6904 -13.3952 0 
38.5167 -10.7919 0 
38.1036 -12.0935 0 
38.5167 -10.7919 0 
39.1634 -8.13824 0 
38.84 -9.46506 0 
39.1634 -8.13824 0 
39.6274 -5.44667 0 
39.3954 -6.79245 0 
39.6274 -5.44667 0 
39.9068 -2.7297 0 
39.7671 -4.08818 0 
39.9068 -2.7297 0 
40 0 0 
39.9534 -1.36485 0 
[...]
CELL_DATA 520
FIELD FieldData 2
material 1 520 int
2
2
2
2
2
2
2
2
2
2
2
2
2
2
2
2
2
2
2
2
2
2
2
2
2
2
2
2
2
2
2
2
2
2
2
2
2
2
2
2
2
2
2
2
2
2
2
2
2
2
2
2
2
2
2
2
2
2
2
2
2
2
2
2
2
2
2
2
3
3
3
3
3
3
3
3
3
3
3
3
3
3
3
3
3
3
3
3
3
3
3
3
3
3
3
3
3
3
3
3
3
3
3
3
3
3
3
3
3
3
3
3
3
3
3
3
3
3
3
3
3
3
3
3
3
3
3
3
3
3
3
3
3
3
3
3
3
3
3
3
3
3
3
3
3
3
3
3
3
3
3
3
3
3
3
3
3
3
3
3
1
1
1
1
1
1
1
1
1
1
1
1
1
1
1
1
1
1
1
1
1
1
1
1
1
1
1
1
1
1
1
1
1
1
1
1
1
1
1
1
1
1
1
1
1
1
1
1
1
1
1
1
1
1
1
1
1
1
1
1
1
1
1
1
1
1
1
1
1
1
1
1
1
1
1
1
1
1
1
1
1
1
1
1
1
1
1
1
1
1
1
1
1
1
1
1
1
1
1
1
1
1
1
1
1
1
1
1
1
1
1
1
1
1
1
1
1
1
1
1
1
1
1
1
1
1
1
1
1
1
1
1
1
1
1
1
1
1
1
1
1
1
1
1
1
1
1
1
1
1
1
1
1
1
1
1
1
1
1
1
1
1
1
1
1
1
1
1
1
1
1
1
1
1
1
1
1
1
1
1
1
1
1
1
1
1
1
1
1
1
1
1
1
1
1
1
1
1
1
1
1
1
1
1
1
1
1
1
1
1
1
1
1
1
1
1
1
1
1
1
1
1
1
1
1
1
1
1
1
1
1
1
1
1
1
1
1
1
1
1
1
1
1
1
1
1
1
1
1
1
1
1
1
1
1
1
1
1
1
1
1
1
1
1
1
1
1
1
1
1
1
1
1
1
1
1
1
1
1
1
1
1
1
1
1
1
1
1
1
1
1
1
1
1
1
1
1
1
1
1
1
1
1
1
1
1
1
1
1
1
1
1
1
1
1
1
1
1
1
1
1
1
1
1
1
1
1
1
1
1
1
1
1
1
1
1
1
1
1
1
1
1
1
1
1
1
1
1
1
1
1
1
1
1
1
1
1
1
1
1
elindex 1 520 int
0
1
2
3
4
5
6
7
8
9
10
11
12
13
14
15
16
17
18
19
20
21
22
23
24
25
26
27
28
29
30
31
32
33
34
35
36
37
38
39
40
41
42
43
44
45
46
47
48
49
50
51
52
53
54
55
56
57
58
59
60
61
62
63
64
65
66
67
68
69
70
71
72
73
74
75
76
77
78
79
80
81
82
83
84
85
86
87
88
89
90
91
92
93
94
95
96
97
98
99
100
101
102
103
104
105
106
107
108
109
110
111
112
113
114
115
116
117
118
119
120
121
122
123
124
125
126
127
128
129
130
131
132
133
134
135
136
137
138
139
140
141
142
143
144
145
146
147
148
149
150
151
152
153
154
155
156
157
158
159
160
161
162
163
164
165
166
167
168
169
170
171
172
173
174
175
176
177
178
179
180
181
182
183
184
185
186
187
188
189
190
191
192
193
194
195
196
197
198
199
200
201
202
203
204
205
206
207
208
209
210
211
212
213
214
215
216
217
218
219
220
221
222
223
224
225
226
227
228
229
230
231
232
233
234
235
236
237
238
239
240
241
242
243
244
245
246
247
248
249
250
251
252
253
254
255
256
257
258
259
260
261
262
263
264
265
266
267
268
269
270
271
272
273
274
275
276
277
278
279
280
281
282
283
284
285
286
287
288
289
290
291
292
293
294
295
296
297
298
299
300
301
302
303
304
305
306
307
308
309
310
311
312
313
314
315
316
317
318
319
320
321
322
323
324
325
326
327
328
329
330
331
332
333
334
335
336
337
338
339
340
341
342
343
344
345
346
347
348
349
350
351
352
353
354
355
356
357
358
359
360
361
362
363
364
365
366
367
368
369
370
371
372
373
374
375
376
377
378
379
380
381
382
383
384
385
386
387
388
389
390
391
392
393
394
395
396
397
398
399
400
401
402
403
404
405
406
407
408
409
410
411
412
413
414
415
416
417
418
419
420
421
422
423
424
425
426
427
428
429
430
431
432
433
434
435
436
437
438
439
440
441
442
443
444
445
446
447
448
449
450
451
452
453
454
455
456
457
458
459
460
461
462
463
464
465
466
467
468
469
470
471
472
473
474
475
476
477
478
479
480
481
482
483
484
485
486
487
488
489
490
491
492
493
494
495
496
497
498
499
500
501
502
503
504
505
506
507
508
509
510
511
512
513
514
515
516
517
518
519
POINT_DATA 3360
VECTORS Displacement float
0.00658948 -3.34669e-06 0 
0.00660746 -0.000297858 0 
0.00662544 -0.000592369 0 
0.00651643 0.000574011 0 
0.00655296 0.000285332 0 
0.00658948 -3.34669e-06 0 
0.00638631 0.00113946 0 
0.00645137 0.000856738 0 
0.00651643 0.000574011 0 
0.00620023 0.00168964 0 
0.00629327 0.00141455 0 
0.00638631 0.00113946 0 
0.00596633 0.00222642 0 
0.00608328 0.00195803 0 
0.00620023 0.00168964 0 
0.0056717 0.00272767 0 
0.00581901 0.00247704 0 
0.00596633 0.00222642 0 
0.00536869 0.00321522 0 
0.00552019 0.00297144 0 
0.0056717 0.00272767 0 
0.0049757 0.00363735 0 
0.00517219 0.00342628 0 
0.00536869 0.00321522 0 
0.00457162 0.00405321 0 
0.00477366 0.00384528 0 
0.0049757 0.00363735 0 
0.00411543 0.00442275 0 
0.00434352 0.00423798 0 
0.00457162 0.00405321 0 
0.00363718 0.00475545 0 
0.0038763 0.0045891 0 
0.00411543 0.00442275 0 
0.0031278 0.00501233 0 
0.00338249 0.00488389 0 
0.00363718 0.00475545 0 
0.0026048 0.00525335 0 
0.0028663 0.00513284 0 
0.0031278 0.00501233 0 
0.00204867 0.00542341 0 
0.00232673 0.00533838 0 
0.0026048 0.00525335 0 
0.00147922 0.00554247 0 
0.00176395 0.00548294 0 
0.00204867 0.00542341 0 
0.000899892 0.00560525 0 
0.00118956 0.00557386 0 
0.00147922 0.00554247 0 
0.000310053 0.00563095 0 
0.000604973 0.0056181 0 
0.000899892 0.00560525 0 
-0.000271437 0.00560285 0 
1.93081e-05 0.0056169 0 
0.000310053 0.00563095 0 
-0.000846388 0.00550101 0 
-0.000558913 0.00555193 0 
-0.000271437 0.00560285 0 
-0.00141901 0.00538228 0 
-0.0011327 0.00544164 0 
-0.000846388 0.00550101 0 
-0.00197048 0.00519272 0 
-0.00169474 0.0052875 0 
-0.00141901 0.00538228 0 
-0.00250824 0.00495927 0 
-0.00223936 0.00507599 0 
-0.00197048 0.00519272 0 
-0.00301002 0.00466485 0 
-0.00275913 0.00481206 0 
-0.00250824 0.00495927 0 
-0.003498 0.00436205 0 
-0.00325401 0.00451345 0 
-0.00301002 0.00466485 0 
-0.00392069 0.0039693 0 
-0.00370935 0.00416568 0 
-0.003498 0.00436205 0 
-0.00433729 0.00356552 0 
-0.00412899 0.00376741 0 
-0.00392069 0.0039693 0 
-0.00470771 0.00310968 0 
-0.0045225 0.0033376 0 
-0.00433729 0.00356552 0 
-0.00504144 0.0026318 0 
-0.00487458 0.00287074 0 
-0.00470771 0.00310968 0 
-0.00529948 0.00212279 0 
-0.00517046 0.00237729 0 
-0.00504144 0.0026318 0 
-0.00554185 0.00160011 0 
-0.00542067 0.00186145 0 
-0.00529948 0.00212279 0 
-0.00571338 0.00104425 0 
-0.00562762 0.00132218 0 
-0.00554185 0.00160011 0 
-0.00583404 0.000474982 0 
-0.00577371 0.000759617 0 
-0.00571338 0.00104425 0 
-0.00589852 -0.000104277 0 
-0.00586628 0.000185353 0 
-0.00583404 0.000474982 0 
-0.00592599 -0.000694178 0 
-0.00591225 -0.000399227 0 
-0.00589852 -0.000104277 0 
-0.00589968 -0.00127594 0 
-0.00591283 -0.000985061 0 
-0.00592599 -0.000694178 0 
-0.00579949 -0.00185157 0 
-0.00584959 -0.00156376 0 
-0.00589968 -0.00127594 0 
-0.00568354 -0.00242604 0 
-0.00574152 -0.0021388 0 
-0.00579949 -0.00185157 0 
-0.00550179 -0.00298044 0 
-0.00559266 -0.00270324 0 
-0.00568354 -0.00242604 0 
-0.00525323 -0.00350078 0 
-0.00537751 -0.00324061 0 
-0.00550179 -0.00298044 0 
-0.00498879 -0.00400609 0 
-0.00512101 -0.00375343 0 
-0.00525323 -0.00350078 0 
-0.00464888 -0.00447954 0 
-0.00481884 -0.00424281 0 
-0.00498879 -0.00400609 0 
-0.00427262 -0.00493037 0 
-0.00446075 -0.00470495 0 
-0.00464888 -0.00447954 0 
-0.00385062 -0.00532859 0 
-0.00406162 -0.00512948 0 
-0.00427262 -0.00493037 0 
-0.003423 -0.00571527 0 
-0.00363681 -0.00552193 0 
-0.00385062 -0.00532859 0 
-0.00293064 -0.00601156 0 
-0.00317682 -0.00586341 0 
-0.003423 -0.00571527 0 
-0.00242528 -0.00629916 0 
-0.00267796 -0.00615536 0 
-0.00293064 -0.00601156 0 
-0.00188508 -0.00652576 0 
-0.00215518 -0.00641246 0 
-0.00242528 -0.00629916 0 
-0.00133222 -0.00670435 0 
-0.00160865 -0.00661506 0 
-0.00188508 -0.00652576 0 
-0.00076481 -0.00682686 0 
-0.00104851 -0.0067656 0 
-0.00133222 -0.00670435 0 
-0.000186237 -0.00689221 0 
-0.000475524 -0.00685953 0 
-0.00076481 -0.00682686 0 
0.000403278 -0.00692046 0 
0.000108521 -0.00690633 0 
-0.000186237 -0.00689221 0 
0.000984774 -0.00689482 0 
0.000694026 -0.00690764 0 
0.000403278 -0.00692046 0 
0.00156018 -0.00679522 0 
0.00127248 -0.00684502 0 
0.000984774 -0.00689482 0 
0.00213442 -0.00667966 0 
0.0018473 -0.00673744 0 
0.00156018 -0.00679522 0 
0.00268858 -0.00649817 0 
0.0024115 -0.00658891 0 
0.00213442 -0.00667966 0 
0.00320862 -0.00624974 0 
0.0029486 -0.00637396 0 
0.00268858 -0.00649817 0 
0.00371355 -0.00598527 0 
0.00346108 -0.00611751 0 
0.00320862 -0.00624974 0 
0.00418653 -0.00564524 0 
0.00395004 -0.00581525 0 
0.00371355 -0.00598527 0 
0.00463676 -0.00526875 0 
0.00441165 -0.005457 0 
0.00418653 -0.00564524 0 
0.00503428 -0.00484647 0 
0.00483552 -0.00505761 0 
0.00463676 -0.00526875 0 
0.00542005 -0.00441852 0 
0.00522716 -0.0046325 0 
0.00503428 -0.00484647 0 
0.00571527 -0.00392583 0 
0.00556766 -0.00417217 0 
0.00542005 -0.00441852 0 
0.00600147 -0.00341992 0 
0.00585837 -0.00367288 0 
0.00571527 -0.00392583 0 
0.00622617 -0.00287873 0 
0.00611382 -0.00314933 0 
0.00600147 -0.00341992 0 
0.0064065 -0.00232456 0 
0.00631634 -0.00260165 0 
0.00622617 -0.00287873 0 
0.00651563 -0.00175005 0 
0.00646107 -0.0020373 0 
0.0064065 -0.00232456 0 
0.00660749 -0.00117402 0 
0.00656156 -0.00146203 0 
0.00651563 -0.00175005 0 
0.00662544 -0.000592369 0 
0.00661646 -0.000883195 0 
0.00660749 -0.00117402 0 
0.00254662 -0.000576967 0 
0.00254341 -0.000502901 0 
0.0025402 -0.000428834 0 
0.0025402 -0.000428834 0 
0.00253301 -0.000353243 0 
0.00252581 -0.000277652 0 
0.00252581 -0.000277652 0 
0.00251172 -0.000202821 0 
0.00249762 -0.00012799 0 
0.00249762 -0.00012799 0 
0.00247828 -5.50046e-05 0 
0.00245893 1.79804e-05 0 
0.00245893 1.79804e-05 0 
0.00243536 8.89037e-05 0 
0.0024118 0.000159827 0 
0.0024118 0.000159827 0 
0.00238438 0.000229067 0 
0.00235696 0.000298307 0 
0.00235696 0.000298307 0 
0.00232475 0.000366052 0 
0.00229253 0.000433796 0 
0.00229253 0.000433796 0 
0.00225629 0.000499938 0 
0.00222004 0.000566079 0 
0.00222004 0.000566079 0 
0.00217837 0.000630629 0 
0.0021367 0.000695179 0 
0.0021367 0.000695179 0 
0.00208984 0.00075632 0 
0.00204298 0.000817462 0 
0.00204298 0.000817462 0 
0.00198966 0.000874375 0 
0.00193634 0.000931288 0 
0.00193634 0.000931288 0 
0.0018801 0.000982041 0 
0.00182385 0.0010328 0 
0.00182385 0.0010328 0 
0.00176488 0.00108014 0 
0.00170592 0.00112748 0 
0.00170592 0.00112748 0 
0.00164492 0.00117004 0 
0.00158391 0.00121261 0 
0.00158391 0.00121261 0 
0.00152106 0.00125287 0 
0.00145822 0.00129314 0 
0.00145822 0.00129314 0 
0.00138757 0.00132428 0 
0.00131693 0.00135542 0 
0.00131693 0.00135542 0 
0.00124783 0.00139026 0 
0.00117872 0.0014251 0 
0.00117872 0.0014251 0 
0.00110632 0.00144662 0 
0.00103391 0.00146813 0 
0.00103391 0.00146813 0 
0.000961471 0.00148661 0 
0.000889029 0.00150509 0 
0.000889029 0.00150509 0 
0.000814723 0.00151956 0 
0.000740417 0.00153402 0 
0.000740417 0.00153402 0 
0.000664669 0.001543 0 
0.000588921 0.00155197 0 
0.000588921 0.00155197 0 
0.000512852 0.00155401 0 
0.000436782 0.00155605 0 
0.000436782 0.00155605 0 
0.000362636 0.00155415 0 
0.000288489 0.00155225 0 
0.000288489 0.00155225 0 
0.000213892 0.00154701 0 
0.000139294 0.00154176 0 
0.000139294 0.00154176 0 
6.50559e-05 0.00153233 0 
-9.18238e-06 0.0015229 0 
-9.18238e-06 0.0015229 0 
-8.33638e-05 0.00150807 0 
-0.000157545 0.00149324 0 
-0.000157545 0.00149324 0 
-0.000229676 0.0014736 0 
-0.000301807 0.00145397 0 
-0.000301807 0.00145397 0 
-0.000372506 0.00142992 0 
-0.000443206 0.00140587 0 
-0.000443206 0.00140587 0 
-0.000511977 0.0013781 0 
-0.000580747 0.00135034 0 
-0.000580747 0.00135034 0 
-0.00064821 0.0013181 0 
-0.000715673 0.00128586 0 
-0.000715673 0.00128586 0 
-0.000781636 0.00124976 0 
-0.000847598 0.00121366 0 
-0.000847598 0.00121366 0 
-0.0009121 0.00117223 0 
-0.000976603 0.0011308 0 
-0.000976603 0.0011308 0 
-0.00103779 0.00108422 0 
-0.00109897 0.00103763 0 
-0.00109897 0.00103763 0 
-0.00115599 0.000984617 0 
-0.00121301 0.000931602 0 
-0.00121301 0.000931602 0 
-0.00126394 0.000875689 0 
-0.00131487 0.000819776 0 
-0.00131487 0.000819776 0 
-0.00136246 0.00076117 0 
-0.00141005 0.000702563 0 
-0.00141005 0.000702563 0 
-0.00145293 0.000641928 0 
-0.00149581 0.000581293 0 
-0.00149581 0.000581293 0 
-0.00153647 0.000518829 0 
-0.00157713 0.000456364 0 
-0.00157713 0.000456364 0 
-0.00160873 0.000386086 0 
-0.00164033 0.000315808 0 
-0.00164033 0.000315808 0 
-0.00167572 0.000247068 0 
-0.0017111 0.000178327 0 
-0.0017111 0.000178327 0 
-0.00173323 0.000106255 0 
-0.00175535 3.4183e-05 0 
-0.00175535 3.4183e-05 0 
-0.00177451 -3.79613e-05 0 
-0.00179367 -0.000110106 0 
-0.00179367 -0.000110106 0 
-0.00180887 -0.000184156 0 
-0.00182408 -0.000258206 0 
-0.00182408 -0.000258206 0 
-0.00183385 -0.000333748 0 
-0.00184361 -0.00040929 0 
-0.00184361 -0.00040929 0 
-0.0018465 -0.00048521 0 
-0.00184939 -0.000561129 0 
-0.00184939 -0.000561129 0 
-0.00184838 -0.000635194 0 
-0.00184737 -0.000709258 0 
-0.00184737 -0.000709258 0 
-0.00184306 -0.000783853 0 
-0.00183875 -0.000858449 0 
-0.00183875 -0.000858449 0 
-0.00183026 -0.000932795 0 
-0.00182178 -0.00100714 0 
-0.00182178 -0.00100714 0 
-0.00180788 -0.00108157 0 
-0.00179399 -0.00115599 0 
-0.00179399 -0.00115599 0 
-0.00177508 -0.00122848 0 
-0.00175618 -0.00130096 0 
-0.00175618 -0.00130096 0 
-0.00173311 -0.00137194 0 
-0.00171004 -0.00144293 0 
-0.00171004 -0.00144293 0 
-0.0016841 -0.00151336 0 
-0.00165815 -0.0015838 0 
-0.00165815 -0.0015838 0 
-0.00161926 -0.00165078 0 
-0.00158037 -0.00171776 0 
-0.00158037 -0.00171776 0 
-0.00154556 -0.00178611 0 
-0.00151074 -0.00185447 0 
-0.00151074 -0.00185447 0 
-0.00146694 -0.00191487 0 
-0.00142314 -0.00197526 0 
-0.00142314 -0.00197526 0 
-0.00137725 -0.00203364 0 
-0.00133135 -0.00209202 0 
-0.00133135 -0.00209202 0 
-0.00128088 -0.00214817 0 
-0.00123042 -0.00220431 0 
-0.00123042 -0.00220431 0 
-0.00117676 -0.00225756 0 
-0.00112311 -0.00231081 0 
-0.00112311 -0.00231081 0 
-0.00106353 -0.00236097 0 
-0.00100395 -0.00241113 0 
-0.00100395 -0.00241113 0 
-0.000940385 -0.00245468 0 
-0.000876822 -0.00249823 0 
-0.000876822 -0.00249823 0 
-0.000810103 -0.00253647 0 
-0.000743384 -0.0025747 0 
-0.000743384 -0.0025747 0 
-0.000675329 -0.00260741 0 
-0.000607275 -0.00264012 0 
-0.000607275 -0.00264012 0 
-0.000537878 -0.00266871 0 
-0.000468481 -0.00269729 0 
-0.000468481 -0.00269729 0 
-0.000397851 -0.00272102 0 
-0.000327221 -0.00274474 0 
-0.000327221 -0.00274474 0 
-0.000255171 -0.00276455 0 
-0.000183122 -0.00278437 0 
-0.000183122 -0.00278437 0 
-0.000109275 -0.00279993 0 
-3.54285e-05 -0.00281549 0 
-3.54285e-05 -0.00281549 0 
4e-05 -0.00282578 0 
0.000115428 -0.00283607 0 
0.000115428 -0.00283607 0 
0.000191353 -0.00283946 0 
0.000267278 -0.00284286 0 
0.000267278 -0.00284286 0 
0.000341424 -0.00284229 0 
0.00041557 -0.00284172 0 
0.00041557 -0.00284172 0 
0.000490289 -0.00283778 0 
0.000565008 -0.00283383 0 
0.000565008 -0.00283383 0 
0.0006395 -0.00282563 0 
0.000713993 -0.00281743 0 
0.000713993 -0.00281743 0 
0.000788573 -0.00280374 0 
0.000863153 -0.00279005 0 
0.000863153 -0.00279005 0 
0.000935791 -0.00277128 0 
0.00100843 -0.00275251 0 
0.00100843 -0.00275251 0 
0.00107956 -0.0027295 0 
0.00115068 -0.00270649 0 
0.00115068 -0.00270649 0 
0.00122124 -0.00268053 0 
0.0012918 -0.00265458 0 
0.0012918 -0.00265458 0 
0.00135888 -0.00261561 0 
0.00142595 -0.00257665 0 
0.00142595 -0.00257665 0 
0.00149436 -0.00254168 0 
0.00156277 -0.00250671 0 
0.00156277 -0.00250671 0 
0.00162317 -0.00246271 0 
0.00168358 -0.00241871 0 
0.00168358 -0.00241871 0 
0.00174191 -0.00237256 0 
0.00180025 -0.00232641 0 
0.00180025 -0.00232641 0 
0.00185628 -0.00227564 0 
0.00191232 -0.00222488 0 
0.00191232 -0.00222488 0 
0.00196539 -0.00217089 0 
0.00201846 -0.0021169 0 
0.00201846 -0.0021169 0 
0.00206837 -0.00205697 0 
0.00211828 -0.00199703 0 
0.00211828 -0.00199703 0 
0.00216149 -0.0019331 0 
0.00220471 -0.00186918 0 
0.00220471 -0.00186918 0 
0.00224252 -0.00180212 0 
0.00228033 -0.00173506 0 
0.00228033 -0.00173506 0 
0.00231257 -0.00166676 0 
0.00234481 -0.00159845 0 
0.00234481 -0.00159845 0 
0.00237297 -0.00152889 0 
0.00240112 -0.00145932 0 
0.00240112 -0.00145932 0 
0.00242459 -0.0013887 0 
0.00244806 -0.00131809 0 
0.00244806 -0.00131809 0 
0.00246763 -0.00124582 0 
0.0024872 -0.00117355 0 
0.0024872 -0.00117355 0 
0.00250217 -0.00110015 0 
0.00251715 -0.00102675 0 
0.00251715 -0.00102675 0 
0.00252718 -0.000951609 0 
0.0025372 -0.00087647 0 
0.0025372 -0.00087647 0 
0.0025417 -0.000801601 0 
0.00254621 -0.000726733 0 
0.00254621 -0.000726733 0 
0.00254641 -0.00065185 0 
0.00254662 -0.000576967 0 
0.00622617 -0.00287873 0 
0.0051756 -0.0024928 0 
0.00526469 -0.00209598 0 
0.0064065 -0.00232456 0 
0.00570088 -0.00268577 0 
0.00522014 -0.00229439 0 
0.0058356 -0.00221027 0 
0.00631634 -0.00260165 0 
-0.00554185 0.00160011 0 
-0.00442199 0.00115529 0 
-0.00458242 0.000808984 0 
-0.00571338 0.00104425 0 
-0.00498192 0.0013777 0 
-0.0045022 0.000982136 0 
-0.0051479 0.000926618 0 
-0.00562762 0.00132218 0 
-0.00188508 -0.00652576 0 
-0.00150236 -0.00547089 0 
-0.00111045 -0.00558361 0 
-0.00133222 -0.00670435 0 
-0.00169372 -0.00599833 0 
-0.0013064 -0.00552725 0 
-0.00122133 -0.00614398 0 
-0.00160865 -0.00661506 0 
0.0026048 0.00525335 0 
0.00215879 0.004134 0 
0.0018122 0.00429317 0 
0.00204867 0.00542341 0 
0.00238179 0.00469368 0 
0.00198549 0.00421358 0 
0.00193043 0.00485829 0 
0.00232673 0.00533838 0 
-0.00197048 0.00519272 0 
-0.00141901 0.00538228 0 
-0.00119809 0.00423601 0 
-0.00159189 0.00413862 0 
-0.00169474 0.0052875 0 
-0.00130855 0.00480914 0 
-0.00139499 0.00418731 0 
-0.00178119 0.00466567 0 
0.00620023 0.00168964 0 
0.00638631 0.00113946 0 
0.00526201 0.000923808 0 
0.0051424 0.00131312 0 
0.00629327 0.00141455 0 
0.00582416 0.00103164 0 
0.0052022 0.00111847 0 
0.00567131 0.00150138 0 
-0.00550179 -0.00298044 0 
-0.00568354 -0.00242604 0 
-0.00452745 -0.00219116 0 
-0.00438292 -0.00254018 0 
-0.00559266 -0.00270324 0 
-0.00510549 -0.0023086 0 
-0.00445518 -0.00236567 0 
-0.00494235 -0.00276031 0 
0.00268858 -0.00649817 0 
0.00213442 -0.00667966 0 
0.00189932 -0.00552374 0 
0.00224827 -0.00537938 0 
0.0024115 -0.00658891 0 
0.00201687 -0.0061017 0 
0.00207379 -0.00545156 0 
0.00246842 -0.00593877 0 
0.000267278 -0.00284286 0 
0.000174212 -0.00368228 0 
-2.90306e-06 -0.00363611 0 
0.000115428 -0.00283607 0 
0.000220745 -0.00326257 0 
8.56545e-05 -0.0036592 0 
5.62627e-05 -0.00323609 0 
0.000191353 -0.00283946 0 
-0.00184939 -0.000561129 0 
-0.00268885 -0.000467297 0 
-0.00264353 -0.000290199 0 
-0.00184361 -0.00040929 0 
-0.00226912 -0.000514213 0 
-0.00266619 -0.000378748 0 
-0.00224357 -0.000349745 0 
-0.0018465 -0.00048521 0 
0.0025402 -0.000428834 0 
0.00252581 -0.000277652 0 
0.00332663 -0.000165719 0 
0.00337907 -0.000342468 0 
0.00253301 -0.000353243 0 
0.00292622 -0.000221686 0 
0.00335285 -0.000254094 0 
0.00295963 -0.000385651 0 
0.000436782 0.00155605 0 
0.000532159 0.00239567 0 
0.000709406 0.00235175 0 
0.000588921 0.00155197 0 
0.000484471 0.00197586 0 
0.000620783 0.00237371 0 
0.000649164 0.00195186 0 
0.000512852 0.00155401 0 
0.00450741 -0.00345927 0 
0.00571527 -0.00392583 0 
0.00542005 -0.00441852 0 
0.00474108 -0.00391797 0 
0.00511134 -0.00369255 0 