# vtk DataFile Version 3.0
TPZGeoMesh VTK Visualization
ASCII

DATASET UNSTRUCTURED_GRID
POINTS 292 float
30 0 0 
27.9742 10.8372 0 
28.9871 5.41862 0 
27.9742 10.8372 0 
22.1703 20.2109 0 
25.0722 15.5241 0 
22.1703 20.2109 0 
13.3722 26.8549 0 
17.7712 23.5329 0 
13.3722 26.8549 0 
2.76805 29.872 0 
8.0701 28.3635 0 
2.76805 29.872 0 
-8.20989 28.8548 0 
-2.72092 29.3634 0 
-8.20989 28.8548 0 
-18.079 23.9405 0 
-13.1445 26.3976 0 
-18.079 23.9405 0 
-25.5065 15.793 0 
-21.7928 19.8667 0 
-25.5065 15.793 0 
-29.4892 5.51249 0 
-27.4979 10.6527 0 
-29.4892 5.51249 0 
-29.4892 -5.51249 0 
-29.4892 -1.59872e-14 0 
-29.4892 -5.51249 0 
-25.5065 -15.793 0 
-27.4979 -10.6527 0 
-25.5065 -15.793 0 
-18.079 -23.9405 0 
-21.7928 -19.8667 0 
-18.079 -23.9405 0 
-8.20989 -28.8548 0 
-13.1445 -26.3976 0 
-8.20989 -28.8548 0 
2.76805 -29.872 0 
-2.72092 -29.3634 0 
2.76805 -29.872 0 
13.3722 -26.8549 0 
8.0701 -28.3635 0 
13.3722 -26.8549 0 
22.1703 -20.2109 0 
17.7712 -23.5329 0 
22.1703 -20.2109 0 
27.9742 -10.8372 0 
25.0722 -15.5241 0 
27.9742 -10.8372 0 
30 0 0 
28.9871 -5.41862 0 
40 0 0 
38.5167 10.7919 0 
39.2583 5.39594 0 
38.5167 10.7919 0 
34.1768 20.7834 0 
36.3467 15.7876 0 
34.1768 20.7834 0 
27.3021 29.2334 0 
30.7395 25.0084 0 
27.3021 29.2334 0 
18.4026 35.5154 0 
22.8524 32.3744 0 
18.4026 35.5154 0 
8.13824 39.1634 0 
13.2704 37.3394 0 
8.13824 39.1634 0 
-2.7297 39.9068 0 
2.70427 39.5351 0 
-2.7297 39.9068 0 
-13.3952 37.6904 0 
-8.06244 38.7986 0 
-13.3952 37.6904 0 
-23.0672 32.6788 0 
-18.2312 35.1846 0 
-23.0672 32.6788 0 
-31.0285 25.2435 0 
-27.0478 28.9612 0 
-31.0285 25.2435 0 
-36.6885 15.936 0 
-33.8585 20.5898 0 
-36.6885 15.936 0 
-39.6274 5.44667 0 
-38.1579 10.6914 0 
-39.6274 5.44667 0 
-39.6274 -5.44667 0 
-39.6274 4.88498e-15 0 
-39.6274 -5.44667 0 
-36.6885 -15.936 0 
-38.1579 -10.6914 0 
-36.6885 -15.936 0 
-31.0285 -25.2435 0 
-33.8585 -20.5898 0 
-31.0285 -25.2435 0 
-23.0672 -32.6788 0 
-27.0478 -28.9612 0 
-23.0672 -32.6788 0 
-13.3952 -37.6904 0 
-18.2312 -35.1846 0 
-13.3952 -37.6904 0 
-2.7297 -39.9068 0 
-8.06244 -38.7986 0 
-2.7297 -39.9068 0 
8.13824 -39.1634 0 
2.70427 -39.5351 0 
8.13824 -39.1634 0 
18.4026 -35.5154 0 
13.2704 -37.3394 0 
18.4026 -35.5154 0 
27.3021 -29.2334 0 
22.8524 -32.3744 0 
27.3021 -29.2334 0 
34.1768 -20.7834 0 
30.7395 -25.0084 0 
34.1768 -20.7834 0 
38.5167 -10.7919 0 
36.3467 -15.7876 0 
38.5167 -10.7919 0 
40 0 0 
39.2583 -5.39594 0 
-39.6274 -5.44667 0 
-36.6885 -15.936 0 
-29.4892 -5.51249 0 
-38.1579 -10.6914 0 
-33.0888 -10.7243 0 
-34.5583 -5.47958 0 
-39.6274 5.44667 0 
-39.6274 -5.44667 0 
-35.4532 2.66623 0 
-39.6274 4.88498e-15 0 
-37.5403 -1.39022 0 
-37.5403 4.05645 0 
40 0 0 
30 0 0 
27.9742 -10.8372 0 
38.5167 -10.7919 0 
35 0 0 
28.9871 -5.41862 0 
33.2454 -10.8146 0 
39.2583 -5.39594 0 
40 0 0 
38.5167 10.7919 0 
27.9742 10.8372 0 
30 0 0 
39.2583 5.39594 0 
33.2454 10.8146 0 
28.9871 5.41862 0 
35 0 0 
27.3021 -29.2334 0 
13.3722 -26.8549 0 
8.13824 -39.1634 0 
18.4026 -35.5154 0 
20.3371 -28.0442 0 
10.7552 -33.0091 0 
13.2704 -37.3394 0 
22.8524 -32.3744 0 
27.3021 29.2334 0 
18.4026 35.5154 0 
8.13824 39.1634 0 
13.3722 26.8549 0 
22.8524 32.3744 0 
13.2704 37.3394 0 
10.7552 33.0091 0 
20.3371 28.0442 0 
-23.0672 32.6788 0 
-31.0285 25.2435 0 
-25.5065 15.793 0 
-18.079 23.9405 0 
-27.0478 28.9612 0 
-28.2675 20.5182 0 
-21.7928 19.8667 0 
-20.5731 28.3097 0 
-23.0672 -32.6788 0 
-18.079 -23.9405 0 
-25.5065 -15.793 0 
-31.0285 -25.2435 0 
-20.5731 -28.3097 0 
-21.7928 -19.8667 0 
-28.2675 -20.5182 0 
-27.0478 -28.9612 0 
2.76805 -29.872 0 
-8.20989 -28.8548 0 
-13.3952 -37.6904 0 
-2.7297 -39.9068 0 
-2.72092 -29.3634 0 
-10.8025 -33.2726 0 
-8.06244 -38.7986 0 
0.0191771 -34.8894 0 
2.76805 29.872 0 
-2.7297 39.9068 0 
-13.3952 37.6904 0 
-8.20989 28.8548 0 
0.0191771 34.8894 0 
-8.06244 38.7986 0 
-10.8025 33.2726 0 
-2.72092 29.3634 0 
13.3722 26.8549 0 
22.1703 20.2109 0 
34.1768 20.7834 0 
27.3021 29.2334 0 
17.7712 23.5329 0 
28.1735 20.4971 0 
30.7395 25.0084 0 
20.3371 28.0442 0 
13.3722 -26.8549 0 
27.3021 -29.2334 0 
34.1768 -20.7834 0 
22.1703 -20.2109 0 
20.3371 -28.0442 0 
30.7395 -25.0084 0 
28.1735 -20.4971 0 
17.7712 -23.5329 0 
22.1703 -20.2109 0 
34.1768 -20.7834 0 
38.5167 -10.7919 0 
27.9742 -10.8372 0 
28.1735 -20.4971 0 
36.3467 -15.7876 0 
33.2454 -10.8146 0 
25.0722 -15.5241 0 
22.1703 20.2109 0 
27.9742 10.8372 0 
38.5167 10.7919 0 
34.1768 20.7834 0 
25.0722 15.5241 0 
33.2454 10.8146 0 
36.3467 15.7876 0 
28.1735 20.4971 0 
13.3722 -26.8549 0 
2.76805 -29.872 0 
-2.7297 -39.9068 0 
8.13824 -39.1634 0 
8.0701 -28.3635 0 
0.0191771 -34.8894 0 
2.70427 -39.5351 0 
10.7552 -33.0091 0 
13.3722 26.8549 0 
8.13824 39.1634 0 
-2.7297 39.9068 0 
2.76805 29.872 0 
10.7552 33.0091 0 
2.70427 39.5351 0 
0.0191771 34.8894 0 
8.0701 28.3635 0 
-29.4892 -5.51249 0 
-36.6885 -15.936 0 
-31.0285 -25.2435 0 
-25.5065 -15.793 0 
-33.0888 -10.7243 0 
-33.8585 -20.5898 0 
-28.2675 -20.5182 0 
-27.4979 -10.6527 0 
-29.4892 5.51249 0 
-25.5065 15.793 0 
-31.0285 25.2435 0 
-36.6885 15.936 0 
-27.4979 10.6527 0 
-28.2675 20.5182 0 
-33.8585 20.5898 0 
-33.0888 10.7243 0 
-29.4892 5.51249 0 
-35.4532 2.66623 0 
-39.6274 -5.44667 0 
-29.4892 -5.51249 0 
-32.4712 4.08936 0 
-37.5403 -1.39022 0 
-34.5583 -5.47958 0 
-29.4892 -1.59872e-14 0 
-36.6885 15.936 0 
-39.6274 5.44667 0 
-35.4532 2.66623 0 
-29.4892 5.51249 0 
-38.1579 10.6914 0 
-37.5403 4.05645 0 
-32.4712 4.08936 0 
-33.0888 10.7243 0 
-18.079 23.9405 0 
-8.20989 28.8548 0 
-13.3952 37.6904 0 
-23.0672 32.6788 0 
-13.1445 26.3976 0 
-10.8025 33.2726 0 
-18.2312 35.1846 0 
-20.5731 28.3097 0 
-13.3952 -37.6904 0 
-8.20989 -28.8548 0 
-18.079 -23.9405 0 
-23.0672 -32.6788 0 
-10.8025 -33.2726 0 
-13.1445 -26.3976 0 
-20.5731 -28.3097 0 
-18.2312 -35.1846 0 
CELLS 62 354
3 0 1 2
3 3 4 5
3 6 7 8
3 9 10 11
3 12 13 14
3 15 16 17
3 18 19 20
3 21 22 23
3 24 25 26
3 27 28 29
3 30 31 32
3 33 34 35
3 36 37 38
3 39 40 41
3 42 43 44
3 45 46 47
3 48 49 50
3 51 52 53
3 54 55 56
3 57 58 59
3 60 61 62
3 63 64 65
3 66 67 68
3 69 70 71
3 72 73 74
3 75 76 77
3 78 79 80
3 81 82 83
3 84 85 86
3 87 88 89
3 90 91 92
3 93 94 95
3 96 97 98
3 99 100 101
3 102 103 104
3 105 106 107
3 108 109 110
3 111 112 113
3 114 115 116
3 117 118 119
6 120 121 122 123 124 125
6 126 127 128 129 130 131
8 132 133 134 135 136 137 138 139
8 140 141 142 143 144 145 146 147
8 148 149 150 151 152 153 154 155
8 156 157 158 159 160 161 162 163
8 164 165 166 167 168 169 170 171
8 172 173 174 175 176 177 178 179
8 180 181 182 183 184 185 186 187
8 188 189 190 191 192 193 194 195
8 196 197 198 199 200 201 202 203
8 204 205 206 207 208 209 210 211
8 212 213 214 215 216 217 218 219
8 220 221 222 223 224 225 226 227
8 228 229 230 231 232 233 234 235
8 236 237 238 239 240 241 242 243
8 244 245 246 247 248 249 250 251
8 252 253 254 255 256 257 258 259
8 260 261 262 263 264 265 266 267
8 268 269 270 271 272 273 274 275
8 276 277 278 279 280 281 282 283
8 284 285 286 287 288 289 290 291

CELL_TYPES 62
21
21
21
21
21
21
21
21
21
21
21
21
21
21
21
21
21
21
21
21
21
21
21
21
21
21
21
21
21
21
21
21
21
21
21
21
21
21
21
21
22
22
23
23
23
23
23
23
23
23
23
23
23
23
23
23
23
23
23
23
23
23

CELL_DATA 62
FIELD FieldData 2
material 1 62 int
2
2
2
2
2
2
2
2
2
2
2
2
2
2
2
2
2
3
3
3
3
3
3
3
3
3
3
3
3
3
3
3
3
3
3
3
3
3
3
3
1
1
1
1
1
1
1
1
1
1
1
1
1
1
1
1
1
1
1
1
1
1
elindex 1 62 int
0
1
2
3
4
5
6
7
8
9
10
11
12
13
14
15
16
17
18
19
20
21
22
23
24
25
26
27
28
29
30
31
32
33
34
35
36
37
38
39
40
41
42
43
44
45
46
47
48
49
50
51
52
53
54
55
56
57
58
59
60
61
POINT_DATA 292
VECTORS Displacement float
0.00214889 0.0126101 0 
0.00309358 0.0116561 0 
0.00344031 0.0105881 0 
0.000195477 0.0140062 0 
0.00144212 0.0134774 0 
0.00214889 0.0126101 0 
-0.00216251 0.0145947 0 
-0.000776818 0.0145483 0 
0.000195477 0.0140062 0 
-0.00453376 0.0144179 0 
-0.0032706 0.0148224 0 
-0.00216251 0.0145947 0 
-0.00666467 0.0133632 0 
-0.00562615 0.0142021 0 
-0.00453376 0.0144179 0 
-0.00826078 0.0115824 0 
-0.00759774 0.0127447 0 
-0.00666467 0.0133632 0 
-0.00908347 0.00932729 0 
-0.0089006 0.0106607 0 
-0.00826078 0.0115824 0 
-0.00902526 0.00692225 0 
-0.00934298 0.00823713 0 
-0.00908347 0.00932729 0 
-0.00814652 0.00468091 0 
-0.00891191 0.00578051 0 
-0.00902526 0.00692225 0 
-0.00655156 0.00290659 0 
-0.00764041 0.0036749 0 
-0.00814652 0.00468091 0 
-0.00441411 0.00184931 0 
-0.00571152 0.00217184 0 
-0.00655156 0.00290659 0 
-0.00202492 0.00166004 0 
-0.00335451 0.00148289 0 
-0.00441411 0.00184931 0 
0.000270548 0.0023746 0 
-0.000904114 0.00170586 0 
-0.00202492 0.00166004 0 
0.00215647 0.00390573 0 
0.00129102 0.0028242 0 
0.000270548 0.0023746 0 
0.00344562 0.00591038 0 
0.0030077 0.00466027 0 
0.00215647 0.00390573 0 
0.0038915 0.00824029 0 
0.00393845 0.00690608 0 
0.00344562 0.00591038 0 
0.00344031 0.0105881 0 
0.00396486 0.00935721 0 
0.0038915 0.00824029 0 
-0.000657745 0.0113921 0 
-0.000954046 0.0116241 0 
-0.00160439 0.0118143 0 
-0.00160439 0.0118143 0 
-0.00196077 0.0119466 0 
-0.00263789 0.0119574 0 
-0.00263789 0.0119574 0 
-0.00303075 0.0119818 0 
-0.00369528 0.0118148 0 
-0.00369528 0.0118148 0 
-0.00407111 0.0117016 0 
-0.00462838 0.0113775 0 
-0.00462838 0.0113775 0 
-0.00497764 0.0111859 0 
-0.00539511 0.0107326 0 
-0.00539511 0.0107326 0 
-0.00570095 0.0104991 0 
-0.00600499 0.00992872 0 
-0.00600499 0.00992872 0 
-0.00622698 0.00962109 0 
-0.00636424 0.00897437 0 
-0.00636424 0.00897437 0 
-0.00649076 0.0086186 0 
-0.00644988 0.00794472 0 
-0.00644988 0.00794472 0 
-0.00646385 0.00756602 0 
-0.00624397 0.00692182 0 
-0.00624397 0.00692182 0 
-0.00613994 0.00654855 0 
-0.00575891 0.00598739 0 
-0.00575891 0.00598739 0 
-0.00554028 0.00567121 0 
-0.00503463 0.00524937 0 
-0.00503463 0.00524937 0 
-0.00477138 0.00498425 0 
-0.00415622 0.00469534 0 
-0.00415622 0.00469534 0 
-0.00383288 0.00453328 0 
-0.00320514 0.00444449 0 
-0.00320514 0.00444449 0 
-0.0028345 0.00433621 0 
-0.00218707 0.00442059 0 
-0.00218707 0.00442059 0 
-0.00180715 0.00441847 0 
-0.00119346 0.00468226 0 
-0.00119346 0.00468226 0 
-0.000830295 0.00478854 0 
-0.000299841 0.00521279 0 
-0.000299841 0.00521279 0 
1.58692e-05 0.00542591 0 
0.000416254 0.00597786 0 
0.000416254 0.00597786 0 
0.000660166 0.00628306 0 
0.000905905 0.00692497 0 
0.000905905 0.00692497 0 
0.00102942 0.00729812 0 
0.00108483 0.00793268 0 
0.00108483 0.00793268 0 
0.00113635 0.0083247 0 
0.00100659 0.00892746 0 
0.00100659 0.00892746 0 
0.000991255 0.00931333 0 
0.000704408 0.00989062 0 
0.000704408 0.00989062 0 
0.000577988 0.0102503 0 
0.000130951 0.0107315 0 
0.000130951 0.0107315 0 
-8.63961e-05 0.0110409 0 
-0.000657745 0.0113921 0 
-0.00415622 0.00469534 0 
-0.00320514 0.00444449 0 
-0.00814652 0.00468091 0 
-0.00383288 0.00453328 0 
-0.00551075 0.00429189 0 
-0.00599529 0.00479271 0 
-0.00503463 0.00524937 0 
-0.00415622 0.00469534 0 
-0.00644766 0.00558027 0 
-0.00477138 0.00498425 0 
-0.0053835 0.00505008 0 
-0.00572355 0.00544407 0 
-0.000657745 0.0113921 0 
0.00344031 0.0105881 0 
0.0038915 0.00824029 0 
0.000130951 0.0107315 0 
0.00119582 0.0109901 0 
0.00396486 0.00935721 0 
0.00188843 0.00966425 0 
-8.63961e-05 0.0110409 0 
-0.000657745 0.0113921 0 
-0.00160439 0.0118143 0 
0.00214889 0.0126101 0 
0.00344031 0.0105881 0 
-0.000954046 0.0116241 0 
0.000149452 0.0120339 0 
0.00309358 0.0116561 0 
0.00119582 0.0109901 0 
0.00100659 0.00892746 0 
0.00215647 0.00390573 0 
0.000905905 0.00692497 0 
0.00108483 0.00793268 0 
0.0019088 0.00664192 0 
0.00118624 0.00533034 0 
0.00102942 0.00729812 0 
0.00113635 0.0083247 0 
-0.00369528 0.0118148 0 
-0.00462838 0.0113775 0 
-0.00539511 0.0107326 0 
-0.00216251 0.0145947 0 
-0.00407111 0.0117016 0 
-0.00497764 0.0111859 0 
-0.00412353 0.0127487 0 
-0.00260171 0.0129796 0 
-0.00644988 0.00794472 0 
-0.00624397 0.00692182 0 
-0.00908347 0.00932729 0 
-0.00826078 0.0115824 0 
-0.00646385 0.00756602 0 
-0.00743801 0.00817422 0 
-0.0089006 0.0106607 0 
-0.00720624 0.0096336 0 
-0.00119346 0.00468226 0 
-0.00441411 0.00184931 0 
-0.00655156 0.00290659 0 
-0.00218707 0.00442059 0 
-0.00265469 0.00339571 0 
-0.00571152 0.00217184 0 
-0.00414386 0.00361323 0 
-0.00180715 0.00441847 0 
0.000270548 0.0023746 0 
-0.00202492 0.00166004 0 
-0.000299841 0.00521279 0 
0.000416254 0.00597786 0 
-0.000904114 0.00170586 0 
-0.00118919 0.00363955 0 
1.58692e-05 0.00542591 0 
0.000129328 0.00430354 0 
-0.00453376 0.0144179 0 
-0.00600499 0.00992872 0 
-0.00636424 0.00897437 0 
-0.00666467 0.0133632 0 
-0.00548331 0.0120461 0 
-0.00622698 0.00962109 0 
-0.00654122 0.0109657 0 
-0.00562615 0.0142021 0 
-0.00216251 0.0145947 0 
0.000195477 0.0140062 0 
-0.00263789 0.0119574 0 
-0.00369528 0.0118148 0 
-0.000776818 0.0145483 0 
-0.0011506 0.0127212 0 
-0.00303075 0.0119818 0 
-0.00260171 0.0129796 0 
0.00215647 0.00390573 0 
0.00100659 0.00892746 0 
0.000704408 0.00989062 0 
0.00344562 0.00591038 0 
0.0019088 0.00664192 0 
0.000991255 0.00931333 0 
0.00214564 0.00816119 0 
0.0030077 0.00466027 0 
0.00344562 0.00591038 0 
0.000704408 0.00989062 0 
0.000130951 0.0107315 0 
0.0038915 0.00824029 0 
0.00214564 0.00816119 0 
0.000577988 0.0102503 0 
0.00188843 0.00966425 0 
0.00393845 0.00690608 0 
0.000195477 0.0140062 0 
0.00214889 0.0126101 0 
-0.00160439 0.0118143 0 
-0.00263789 0.0119574 0 
0.00144212 0.0134774 0 
0.000149452 0.0120339 0 
-0.00196077 0.0119466 0 
-0.0011506 0.0127212 0 
0.00215647 0.00390573 0 
0.000270548 0.0023746 0 
0.000416254 0.00597786 0 
0.000905905 0.00692497 0 
0.00129102 0.0028242 0 
0.000129328 0.00430354 0 
0.000660166 0.00628306 0 
0.00118624 0.00533034 0 
-0.00216251 0.0145947 0 
-0.00539511 0.0107326 0 
-0.00600499 0.00992872 0 
-0.00453376 0.0144179 0 
-0.00412353 0.0127487 0 
-0.00570095 0.0104991 0 
-0.00548331 0.0120461 0 
-0.0032706 0.0148224 0 
-0.00814652 0.00468091 0 
-0.00320514 0.00444449 0 
-0.00218707 0.00442059 0 
-0.00655156 0.00290659 0 
-0.00551075 0.00429189 0 
-0.0028345 0.00433621 0 
-0.00414386 0.00361323 0 
-0.00764041 0.0036749 0 
-0.00902526 0.00692225 0 
-0.00908347 0.00932729 0 
-0.00624397 0.00692182 0 
-0.00575891 0.00598739 0 
-0.00934298 0.00823713 0 
-0.00743801 0.00817422 0 
-0.00613994 0.00654855 0 
-0.00722516 0.00671503 0 
-0.00902526 0.00692225 0 
-0.00644766 0.00558027 0 
-0.00415622 0.00469534 0 
-0.00814652 0.00468091 0 
-0.00770722 0.0061432 0 
-0.0053835 0.00505008 0 
-0.00599529 0.00479271 0 
-0.00891191 0.00578051 0 
-0.00575891 0.00598739 0 
-0.00503463 0.00524937 0 
-0.00644766 0.00558027 0 
-0.00902526 0.00692225 0 
-0.00554028 0.00567121 0 
-0.00572355 0.00544407 0 
-0.00770722 0.0061432 0 
-0.00722516 0.00671503 0 
-0.00826078 0.0115824 0 
-0.00666467 0.0133632 0 
-0.00636424 0.00897437 0 
-0.00644988 0.00794472 0 
-0.00759774 0.0127447 0 
-0.00654122 0.0109657 0 
-0.00649076 0.0086186 0 
-0.00720624 0.0096336 0 
-0.000299841 0.00521279 0 
-0.00202492 0.00166004 0 
-0.00441411 0.00184931 0 
-0.00119346 0.00468226 0 
-0.00118919 0.00363955 0 
-0.00335451 0.00148289 0 
-0.00265469 0.00339571 0 
-0.000830295 0.00478854 0 
VECTORS Strain float
-0.000403918 0.000138883 -0.000447565 
-0.000463806 0.000179313 -0.000244712 
-0.000487993 0.000222651 -1.96357e-05 
-0.000191385 -8.03496e-05 -0.000695706 
-0.000307062 1.37212e-05 -0.000616904 
-0.000404083 0.000132916 -0.000485973 
5.36363e-05 -0.000334813 -0.00061535 
-6.59014e-05 -0.000240411 -0.000690608 
-0.00018951 -9.69904e-05 -0.00073424 
0.000221399 -0.000501857 -0.00011748 
0.000154315 -0.000455598 -0.000356528 
9.98484e-05 -0.000375133 -0.000541498 
0.000172867 -0.000441631 0.000373866 
0.000194516 -0.000483911 0.000136513 
0.000214518 -0.000483123 -8.70566e-05 
-2.34923e-05 -0.000241304 0.000672856 
6.45651e-05 -0.00034834 0.000549018 
0.000159068 -0.000423636 0.000396431 
-0.000272196 5.27845e-06 0.000645622 
-0.000171615 -0.000114882 0.000687065 
-4.20531e-05 -0.000224912 0.000690976 
-0.000459501 0.000181537 0.000308173 
-0.000400796 0.000105056 0.0004823 
-0.000297783 2.12885e-05 0.000658071 
-0.000456455 0.000195654 -0.000239408 
-0.000489815 0.000203297 -7.16972e-06 
-0.000470212 0.00021094 0.000235394 
-0.000297146 2.06028e-05 -0.000656588 
-0.000401243 0.000105771 -0.000483068 
-0.000459739 0.000185691 -0.000305431 
-4.19567e-05 -0.000224929 -0.000690949 
-0.000171637 -0.000114863 -0.000687156 
-0.000272194 5.57132e-06 -0.000645441 
0.000159126 -0.000423643 -0.000396462 
6.46002e-05 -0.000348341 -0.000549071 
-2.34667e-05 -0.000241264 -0.000672888 
0.000214578 -0.000483136 8.70591e-05 
0.000194571 -0.000483923 -0.000136531 
0.000172916 -0.000441633 -0.000373902 
9.98938e-05 -0.000375138 0.000541537 
0.000154366 -0.00045561 0.000356556 
0.000221459 -0.000501868 0.00011748 
-0.000189498 -9.6969e-05 0.000734284 
-6.58807e-05 -0.000240398 0.000690662 
5.36694e-05 -0.000334806 0.000615407 
-0.000404082 0.000132931 0.000485994 
-0.000307059 1.37413e-05 0.000616936 
-0.000191373 -8.03304e-05 0.000695755 
-0.000487993 0.00022265 1.96452e-05 
-0.000463807 0.000179322 0.000244721 
-0.000403917 0.000138899 0.000447588 
-0.000331619 5.79311e-05 1.27142e-05 
-0.000325086 4.36678e-05 -9.92887e-05 
-0.000310266 3.02946e-05 -0.000203677 
-0.000310171 3.53262e-05 -0.000181641 
-0.000281984 -8.82502e-06 -0.000279209 
-0.00024641 -4.54908e-05 -0.000356335 
-0.000247024 -3.82563e-05 -0.000343812 
-0.00019876 -0.000104808 -0.000394926 
-0.000150703 -0.000150995 -0.000421176 
-0.000151771 -0.000155885 -0.000414087 
-7.98203e-05 -0.000226719 -0.000372515 
-2.39895e-05 -0.000241645 -0.000314315 
-2.39895e-05 -0.000241645 -0.000314315 
-2.28479e-06 -0.000305136 -0.000262223 
4.06015e-05 -0.000345186 -0.000142201 
4.75294e-05 -0.000346414 -0.000142142 
4.972e-05 -0.000348552 -4.34046e-05 
5.35992e-05 -0.000334687 8.11136e-05 
5.59483e-05 -0.000343365 6.65613e-05 
3.2525e-05 -0.000319166 0.000161379 
7.31922e-06 -0.000280718 0.000261813 
1.501e-05 -0.000292089 0.00024695 
-3.07398e-05 -0.000249475 0.000312136 
-7.54609e-05 -0.000199477 0.000371511 
-6.32203e-05 -0.000209721 0.000360553 
-0.000125554 -0.000157941 0.000382734 
-0.000178562 -0.000104489 0.000393367 
-0.000165648 -0.000111117 0.000389567 
-0.000232837 -6.15246e-05 0.000355742 
-0.000277908 -1.3889e-05 0.000311684 
-0.000271542 -1.89781e-05 0.000308713 
-0.000315143 1.82775e-05 0.000205131 
-0.000340545 5.09321e-05 0.00011287 
-0.00033233 4.64909e-05 0.000122246 
-0.00033857 5.08601e-05 -1.20169e-06 
-0.000344809 5.52293e-05 -0.000124649 
-0.000332824 4.91356e-05 -8.57227e-05 
-0.000301344 1.63827e-05 -0.000201984 
-0.000269864 -1.63701e-05 -0.000318246 
-0.000277803 -1.46575e-05 -0.000315242 
-0.000232712 -6.12714e-05 -0.000355876 
-0.000165663 -0.000111599 -0.000389263 
-0.000178633 -0.000104606 -0.000393653 
-0.000125567 -0.000157916 -0.0003827 
-6.32335e-05 -0.000209784 -0.000360476 
-7.54858e-05 -0.000199499 -0.000371499 
-3.07652e-05 -0.000249467 -0.000312094 
1.49768e-05 -0.000292088 -0.000246912 
7.28184e-06 -0.00028071 -0.000261785 
3.24853e-05 -0.000319151 -0.000161361 
5.59051e-05 -0.000343351 -6.65612e-05 
5.35555e-05 -0.000334671 -8.11172e-05 
4.96786e-05 -0.000348539 4.33889e-05 
4.74905e-05 -0.000346408 0.000142112 
4.05626e-05 -0.000345178 0.000142166 
-2.31949e-06 -0.000305131 0.000262192 
-2.40151e-05 -0.000241646 0.000314275 
-2.40151e-05 -0.000241646 0.000314275 
-7.98397e-05 -0.000226722 0.00037247 
-0.000151789 -0.000155892 0.000414045 
-0.00015072 -0.000151 0.000421136 
-0.000198768 -0.000104816 0.000394888 
-0.000247026 -3.82695e-05 0.000343782 
-0.000246412 -4.55018e-05 0.000356306 
-0.000281981 -8.83692e-06 0.00027919 
-0.000310167 3.53133e-05 0.000181635 
-0.000310262 3.02852e-05 0.000203672 
-0.000325083 4.3662e-05 9.92895e-05 
-0.000331619 5.79291e-05 -1.27083e-05 
-0.000332824 4.91356e-05 -8.57227e-05 
-0.000269864 -1.63701e-05 -0.000318246 
-0.000456612 0.00015539 -0.00026372 
-0.000301344 1.63827e-05 -0.000201984 
-0.000363238 6.951e-05 -0.000290983 
-0.000394718 0.000102263 -0.000174721 
-0.00033233 4.64909e-05 0.000122246 
-0.000344809 5.52293e-05 -0.000124649 
-0.000384835 9.3812e-05 6.95029e-05 
-0.00033857 5.08601e-05 -1.20169e-06 
-0.000364822 7.45206e-05 -2.75732e-05 
-0.000358582 7.01515e-05 9.58744e-05 
-0.000331619 5.79291e-05 -1.27083e-05 
-0.000487993 0.00022265 1.96452e-05 
-0.000403917 0.000138899 0.000447588 
-0.000310262 3.02852e-05 0.000203672 
-0.000409806 0.000122638 1.76278e-06 
-0.000463807 0.000179322 0.000244721 
-0.000357026 7.12299e-05 0.000310957 
-0.000325083 4.3662e-05 9.92895e-05 
-0.000331619 5.79311e-05 1.27142e-05 
-0.000310266 3.02946e-05 -0.000203677 
-0.000403918 0.000138883 -0.000447565 
-0.000487993 0.000222651 -1.96357e-05 
-0.000325086 4.36678e-05 -9.92887e-05 
-0.000357029 7.12334e-05 -0.000310949 
-0.000463806 0.000179313 -0.000244712 
-0.000409806 0.000122638 -1.75351e-06 
-0.000151789 -0.000155892 0.000414045 
4.46761e-05 -0.000371504 0.000556471 
4.05626e-05 -0.000345178 0.000142166 
-2.40151e-05 -0.000241646 0.000314275 
-5.25991e-05 -0.00023651 0.000495506 
6.23713e-05 -0.000353162 0.000328739 
-2.31949e-06 -0.000305131 0.000262192 
-7.98397e-05 -0.000226722 0.00037247 
-0.000151771 -0.000155885 -0.000414087 
-2.39895e-05 -0.000241645 -0.000314315 
4.06015e-05 -0.000345186 -0.000142201 
4.46473e-05 -0.000371506 -0.000556441 
-7.98203e-05 -0.000226719 -0.000372515 
-2.28479e-06 -0.000305136 -0.000262223 
6.23722e-05 -0.000353166 -0.000328742 
-5.26049e-05 -0.000236507 -0.000495509 
-6.32203e-05 -0.000209721 0.000360553 
-0.000178562 -0.000104489 0.000393367 
-0.000272196 5.27845e-06 0.000645622 
-4.20531e-05 -0.000224912 0.000690976 
-0.000125554 -0.000157941 0.000382734 
-0.000224009 -6.02383e-05 0.000502096 
-0.000171615 -0.000114882 0.000687065 
-6.16632e-05 -0.000224806 0.000507491 
-6.32335e-05 -0.000209784 -0.000360476 
-4.19567e-05 -0.000224929 -0.000690949 
-0.000272194 5.57132e-06 -0.000645441 
-0.000178633 -0.000104606 -0.000393653 
-6.166e-05 -0.000224794 -0.000507509 
-0.000171637 -0.000114863 -0.000687156 
-0.000223968 -6.02582e-05 -0.000502009 
-0.000125567 -0.000157916 -0.0003827 
0.000214578 -0.000483136 8.70591e-05 
0.000172916 -0.000441633 -0.000373902 
7.28184e-06 -0.00028071 -0.000261785 
5.59051e-05 -0.000343351 -6.65612e-05 
0.000194571 -0.000483923 -0.000136531 
7.35768e-05 -0.000358664 -0.00031242 
3.24853e-05 -0.000319151 -0.000161361 
0.000122302 -0.000404394 1.18681e-06 
0.000214518 -0.000483123 -8.70566e-05 
5.59483e-05 -0.000343365 6.65613e-05 
7.31922e-06 -0.000280718 0.000261813 
0.000172867 -0.000441631 0.000373866 
0.000122303 -0.000404397 -1.1835e-06 
3.2525e-05 -0.000319166 0.000161379 
7.35758e-05 -0.000358664 0.000312425 
0.000194516 -0.000483911 0.000136513 
5.36363e-05 -0.000334813 -0.00061535 
-0.00018951 -9.69904e-05 -0.00073424 
-0.000247024 -3.82563e-05 -0.000343812 
-0.000150703 -0.000150995 -0.000421176 
-6.59014e-05 -0.000240411 -0.000690608 
-0.000219949 -5.43171e-05 -0.000504388 
-0.00019876 -0.000104808 -0.000394926 
-5.33468e-05 -0.000219917 -0.000493997 
5.36694e-05 -0.000334806 0.000615407 
-0.00015072 -0.000151 0.000421136 
-0.000247026 -3.82695e-05 0.000343782 
-0.000189498 -9.6969e-05 0.000734284 
-5.33406e-05 -0.00021992 0.000493996 
-0.000198768 -0.000104816 0.000394888 
-0.000219944 -5.43218e-05 0.000504391 
-6.58807e-05 -0.000240398 0.000690662 
-0.000191373 -8.03304e-05 0.000695755 
-0.000246412 -4.55018e-05 0.000356306 
-0.000310167 3.53133e-05 0.000181635 
-0.000404082 0.000132931 0.000485994 
-0.000220136 -5.92967e-05 0.000500116 
-0.000281981 -8.83692e-06 0.00027919 
-0.000357038 7.39838e-05 0.000313755 
-0.000307059 1.37413e-05 0.000616936 
-0.000191385 -8.03496e-05 -0.000695706 
-0.000404083 0.000132916 -0.000485973 
-0.000310171 3.53262e-05 -0.000181641 
-0.00024641 -4.54908e-05 -0.000356335 
-0.000307062 1.37212e-05 -0.000616904 
-0.000357041 7.39869e-05 -0.000313747 
-0.000281984 -8.82502e-06 -0.000279209 
-0.000220141 -5.92911e-05 -0.000500112 
9.98938e-05 -0.000375138 0.000541537 
0.000221459 -0.000501868 0.00011748 
5.35555e-05 -0.000334671 -8.11172e-05 
4.74905e-05 -0.000346408 0.000142112 
0.000154366 -0.00045561 0.000356556 
0.000127342 -0.000404767 -8.93579e-07 
4.96786e-05 -0.000348539 4.33889e-05 
7.18687e-05 -0.000347174 0.00031062 
9.98484e-05 -0.000375133 -0.000541498 
4.75294e-05 -0.000346414 -0.000142142 
5.35992e-05 -0.000334687 8.11136e-05 
0.000221399 -0.000501857 -0.00011748 
7.18671e-05 -0.000347178 -0.000310622 
4.972e-05 -0.000348552 -4.34046e-05 
0.000127341 -0.00040477 8.95317e-07 
0.000154315 -0.000455598 -0.000356528 
-0.000459739 0.000185691 -0.000305431 
-0.000277803 -1.46575e-05 -0.000315242 
-0.000165663 -0.000111599 -0.000389263 
-0.000297146 2.06028e-05 -0.000656588 
-0.00035251 7.39383e-05 -0.000304804 
-0.000232712 -6.12714e-05 -0.000355876 
-0.0002227 -5.79949e-05 -0.000506624 
-0.000401243 0.000105771 -0.000483068 
-0.000459501 0.000181537 0.000308173 
-0.000297783 2.12885e-05 0.000658071 
-0.000165648 -0.000111117 0.000389567 
-0.000277908 -1.3889e-05 0.000311684 
-0.000400796 0.000105056 0.0004823 
-0.00022278 -5.82045e-05 0.000506295 
-0.000232837 -6.15246e-05 0.000355742 
-0.000352888 7.40614e-05 0.000306718 
-0.000470212 0.00021094 0.000235394 
-0.000393635 9.78769e-05 6.61301e-05 
-0.000332989 4.51771e-05 -0.000111194 
-0.000456455 0.000195654 -0.000239408 
-0.000423836 0.000143207 0.000139162 
-0.000355756 7.80351e-05 -3.90686e-05 
-0.000394639 0.000105049 -0.000162527 
-0.000489815 0.000203297 -7.16972e-06 
-0.000271542 -1.89781e-05 0.000308713 
-0.000340545 5.09321e-05 0.00011287 
-0.000388703 8.85987e-05 6.02235e-05 
-0.000475265 0.000162176 0.000269254 
-0.000315143 1.82775e-05 0.000205131 
-0.000362341 7.19482e-05 9.14277e-05 
-0.000429983 0.000136538 0.000155226 
-0.000357875 6.99999e-05 0.000297393 
-2.34923e-05 -0.000241304 0.000672856 
0.000159068 -0.000423636 0.000396431 
1.501e-05 -0.000292089 0.00024695 
-7.54609e-05 -0.000199477 0.000371511 
6.45651e-05 -0.00034834 0.000549018 
7.08964e-05 -0.000357711 0.000312475 
-3.07398e-05 -0.000249475 0.000312136 
-6.08076e-05 -0.000226469 0.000505067 
1.49768e-05 -0.000292088 -0.000246912 
0.000159126 -0.000423643 -0.000396462 
-2.34667e-05 -0.000241264 -0.000672888 
-7.54858e-05 -0.000199499 -0.000371499 
7.0896e-05 -0.00035771 -0.000312471 
6.46002e-05 -0.000348341 -0.000549071 
-6.0802e-05 -0.000226473 -0.000505056 
-3.07652e-05 -0.000249467 -0.000312094 
VECTORS Tension float
-83.597 4.08625 -36.1495 
-94.6181 9.27036 -19.7652 
-97.1994 17.5969 -1.58596 
-49.7284 -31.7919 -56.1916 
-69.9106 -18.0917 -49.8268 
-84.0481 2.69799 -39.2517 
-10.8018 -73.5513 -49.7013 
-31.8519 -60.0419 -55.7799 
-50.4477 -35.5023 -59.304 
16.3482 -100.485 -9.4888 
4.0698 -94.4546 -28.7965 
-2.92882 -79.6566 -43.7364 
9.31783 -89.9471 30.1969 
11.3868 -98.2052 11.026 
16.0573 -96.6386 -7.03149 
-22.127 -57.3119 54.3461 
-9.21623 -75.9163 44.3438 
7.37934 -86.7498 32.0194 
-62.4489 -17.6262 52.1464 
-47.5568 -38.3923 55.4937 
-25.2754 -54.8141 55.8096 
-93.4708 10.0815 24.8909 
-85.2183 -3.50374 38.955 
-67.2454 -15.703 53.1519 
-91.7906 13.5502 -19.3368 
-98.9598 13.0044 -0.579093 
-93.9069 16.1253 19.0126 
-67.1459 -15.8172 -53.0321 
-85.2719 -3.36966 -39.0171 
-93.2381 11.0236 -24.6694 
-25.2543 -54.8114 -55.8074 
-47.5606 -38.3894 -55.5011 
-62.4283 -17.5585 -52.1318 
7.39218 -86.7475 -32.0219 
-9.20815 -75.914 -44.3481 
-22.1183 -57.3009 -54.3487 
16.0701 -96.6374 7.03169 
11.3985 -98.2044 -11.0275 
9.32919 -89.9441 -30.1997 
-2.91865 -79.6545 43.7395 
4.08059 -94.4539 28.7987 
16.3611 -100.484 9.48876 
-50.4435 -35.4965 59.3076 
-31.8462 -60.0374 55.7843 
-10.7937 -73.5474 49.7059 
-84.0468 2.70156 39.2533 
-69.9084 -18.0868 49.8294 
-49.7243 -31.7867 56.1956 
-97.1995 17.5967 1.58673 
-94.6177 9.2724 19.7659 
-83.5956 4.09007 36.1514 
-72.5167 -9.5895 1.02692 
-71.9967 -12.4288 -8.01947 
-69.5025 -14.4889 -16.4509 
-69.1323 -13.3212 -14.671 
-65.6842 -21.5585 -22.5515 
-60.0133 -27.5571 -28.7809 
-59.654 -25.93 -27.7695 
-53.1237 -37.9468 -31.8979 
-45.231 -45.2782 -34.0181 
-45.816 -46.4805 -33.4455 
-34.116 -57.8459 -30.0878 
-22.2653 -57.425 -25.387 
-22.2653 -57.425 -25.387 
-21.652 -70.5741 -21.1795 
-14.5279 -76.8475 -11.4854 
-13.0142 -76.6512 -11.4807 
-12.6567 -76.9928 -3.50575 
-10.8016 -73.5248 6.55148 
-10.8603 -75.3647 5.37611 
-14.5903 -71.402 13.0345 
-17.7453 -64.2744 21.1465 
-16.7577 -66.3661 19.946 
-24.3652 -59.6994 25.211 
-31.224 -51.2574 30.0066 
-29.1084 -52.7738 29.1216 
-39.9083 -45.14 30.9131 
-48.4403 -36.4747 31.7719 
-45.9191 -37.1104 31.4651 
-57.991 -30.3175 28.733 
-65.0942 -22.4449 25.1745 
-63.9774 -23.1786 24.9345 
-71.4599 -17.5997 16.5682 
-75.0613 -11.8226 9.11645 
-73.4729 -12.2788 9.87371 
-74.6104 -11.7025 -0.0970599 
-75.7478 -11.1262 -10.0678 
-73.4038 -11.7027 -6.92375 
-68.4067 -17.0816 -16.3141 