# vtk DataFile Version 3.0
TPZGeoMesh VTK Visualization
ASCII

DATASET UNSTRUCTURED_GRID
POINTS 4800 float
30 0 0 
29.872 2.76805 0 
29.936 1.38403 0 
29.872 2.76805 0 
29.4892 5.51249 0 
29.6806 4.14027 0 
29.4892 5.51249 0 
28.8548 8.20989 0 
29.172 6.86119 0 
28.8548 8.20989 0 
27.9742 10.8372 0 
28.4145 9.52357 0 
27.9742 10.8372 0 
26.8549 13.3722 0 
27.4145 12.1047 0 
26.8549 13.3722 0 
25.5065 15.793 0 
26.1807 14.5826 0 
25.5065 15.793 0 
23.9405 18.079 0 
24.7235 16.936 0 
23.9405 18.079 0 
22.1703 20.2109 0 
23.0554 19.145 0 
22.1703 20.2109 0 
20.2109 22.1703 0 
21.1906 21.1906 0 
20.2109 22.1703 0 
18.079 23.9405 0 
19.145 23.0554 0 
18.079 23.9405 0 
15.793 25.5065 0 
16.936 24.7235 0 
15.793 25.5065 0 
13.3722 26.8549 0 
14.5826 26.1807 0 
13.3722 26.8549 0 
10.8372 27.9742 0 
12.1047 27.4145 0 
10.8372 27.9742 0 
8.20989 28.8548 0 
9.52357 28.4145 0 
8.20989 28.8548 0 
5.51249 29.4892 0 
6.86119 29.172 0 
5.51249 29.4892 0 
2.76805 29.872 0 
4.14027 29.6806 0 
2.76805 29.872 0 
8.49825e-15 30 0 
1.38403 29.936 0 
8.49825e-15 30 0 
-2.76805 29.872 0 
-1.38403 29.936 0 
-2.76805 29.872 0 
-5.51249 29.4892 0 
-4.14027 29.6806 0 
-5.51249 29.4892 0 
-8.20989 28.8548 0 
-6.86119 29.172 0 
-8.20989 28.8548 0 
-10.8372 27.9742 0 
-9.52357 28.4145 0 
-10.8372 27.9742 0 
-13.3722 26.8549 0 
-12.1047 27.4145 0 
-13.3722 26.8549 0 
-15.793 25.5065 0 
-14.5826 26.1807 0 
-15.793 25.5065 0 
-18.079 23.9405 0 
-16.936 24.7235 0 
-18.079 23.9405 0 
-20.2109 22.1703 0 
-19.145 23.0554 0 
-20.2109 22.1703 0 
-22.1703 20.2109 0 
-21.1906 21.1906 0 
-22.1703 20.2109 0 
-23.9405 18.079 0 
-23.0554 19.145 0 
-23.9405 18.079 0 
-25.5065 15.793 0 
-24.7235 16.936 0 
-25.5065 15.793 0 
-26.8549 13.3722 0 
-26.1807 14.5826 0 
-26.8549 13.3722 0 
-27.9742 10.8372 0 
-27.4145 12.1047 0 
-27.9742 10.8372 0 
-28.8548 8.20989 0 
-28.4145 9.52357 0 
-28.8548 8.20989 0 
-29.4892 5.51249 0 
-29.172 6.86119 0 
-29.4892 5.51249 0 
-29.872 2.76805 0 
-29.6806 4.14027 0 
-29.872 2.76805 0 
-30 -2.29715e-14 0 
-29.936 1.38403 0 
-30 -2.29715e-14 0 
-29.872 -2.76805 0 
-29.936 -1.38403 0 
-29.872 -2.76805 0 
-29.4892 -5.51249 0 
-29.6806 -4.14027 0 
-29.4892 -5.51249 0 
-28.8548 -8.20989 0 
-29.172 -6.86119 0 
-28.8548 -8.20989 0 
-27.9742 -10.8372 0 
-28.4145 -9.52357 0 
-27.9742 -10.8372 0 
-26.8549 -13.3722 0 
-27.4145 -12.1047 0 
-26.8549 -13.3722 0 
-25.5065 -15.793 0 
-26.1807 -14.5826 0 
-25.5065 -15.793 0 
-23.9405 -18.079 0 
-24.7235 -16.936 0 
-23.9405 -18.079 0 
-22.1703 -20.2109 0 
-23.0554 -19.145 0 
-22.1703 -20.2109 0 
-20.2109 -22.1703 0 
-21.1906 -21.1906 0 
-20.2109 -22.1703 0 
-18.079 -23.9405 0 
-19.145 -23.0554 0 
-18.079 -23.9405 0 
-15.793 -25.5065 0 
-16.936 -24.7235 0 
-15.793 -25.5065 0 
-13.3722 -26.8549 0 
-14.5826 -26.1807 0 
-13.3722 -26.8549 0 
-10.8372 -27.9742 0 
-12.1047 -27.4145 0 
-10.8372 -27.9742 0 
-8.20989 -28.8548 0 
-9.52357 -28.4145 0 
-8.20989 -28.8548 0 
-5.51249 -29.4892 0 
-6.86119 -29.172 0 
-5.51249 -29.4892 0 
-2.76805 -29.872 0 
-4.14027 -29.6806 0 
-2.76805 -29.872 0 
-5.51073e-15 -30 0 
-1.38403 -29.936 0 
-5.51073e-15 -30 0 
2.76805 -29.872 0 
1.38403 -29.936 0 
2.76805 -29.872 0 
5.51249 -29.4892 0 
4.14027 -29.6806 0 
5.51249 -29.4892 0 
8.20989 -28.8548 0 
6.86119 -29.172 0 
8.20989 -28.8548 0 
10.8372 -27.9742 0 
9.52357 -28.4145 0 
10.8372 -27.9742 0 
13.3722 -26.8549 0 
12.1047 -27.4145 0 
13.3722 -26.8549 0 
15.793 -25.5065 0 
14.5826 -26.1807 0 
15.793 -25.5065 0 
18.079 -23.9405 0 
16.936 -24.7235 0 
18.079 -23.9405 0 
20.2109 -22.1703 0 
19.145 -23.0554 0 
20.2109 -22.1703 0 
22.1703 -20.2109 0 
21.1906 -21.1906 0 
22.1703 -20.2109 0 
23.9405 -18.079 0 
23.0554 -19.145 0 
23.9405 -18.079 0 
25.5065 -15.793 0 
24.7235 -16.936 0 
25.5065 -15.793 0 
26.8549 -13.3722 0 
26.1807 -14.5826 0 
26.8549 -13.3722 0 
27.9742 -10.8372 0 
27.4145 -12.1047 0 
27.9742 -10.8372 0 
28.8548 -8.20989 0 
28.4145 -9.52357 0 
28.8548 -8.20989 0 
29.4892 -5.51249 0 
29.172 -6.86119 0 
29.4892 -5.51249 0 
29.872 -2.76805 0 
29.6806 -4.14027 0 
29.872 -2.76805 0 
30 0 0 
29.936 -1.38403 0 
40 0 0 
39.9068 2.7297 0 
39.9534 1.36485 0 
39.9068 2.7297 0 
39.6274 5.44667 0 
39.7671 4.08818 0 
39.6274 5.44667 0 
39.1634 8.13824 0 
39.3954 6.79245 0 
39.1634 8.13824 0 
38.5167 10.7919 0 
38.84 9.46506 0 
38.5167 10.7919 0 
37.6904 13.3952 0 
38.1036 12.0935 0 
37.6904 13.3952 0 
36.6885 15.936 0 
37.1894 14.6656 0 
36.6885 15.936 0 
35.5154 18.4026 0 
36.1019 17.1693 0 
35.5154 18.4026 0 
34.1768 20.7834 0 
34.8461 19.593 0 
34.1768 20.7834 0 
32.6788 23.0672 0 
33.4278 21.9253 0 
32.6788 23.0672 0 
31.0285 25.2435 0 
31.8536 24.1554 0 
31.0285 25.2435 0 
29.2334 27.3021 0 
30.1309 26.2728 0 
29.2334 27.3021 0 
27.3021 29.2334 0 
28.2678 28.2678 0 
27.3021 29.2334 0 
25.2435 31.0285 0 
26.2728 30.1309 0 
25.2435 31.0285 0 
23.0672 32.6788 0 
24.1554 31.8536 0 
23.0672 32.6788 0 
20.7834 34.1768 0 
21.9253 33.4278 0 
20.7834 34.1768 0 
18.4026 35.5154 0 
19.593 34.8461 0 
18.4026 35.5154 0 
15.936 36.6885 0 
17.1693 36.1019 0 
15.936 36.6885 0 
13.3952 37.6904 0 
14.6656 37.1894 0 
13.3952 37.6904 0 
10.7919 38.5167 0 
12.0935 38.1036 0 
10.7919 38.5167 0 
8.13824 39.1634 0 
9.46506 38.84 0 
8.13824 39.1634 0 
5.44667 39.6274 0 
6.79245 39.3954 0 
5.44667 39.6274 0 
2.7297 39.9068 0 
4.08818 39.7671 0 
2.7297 39.9068 0 
2.44921e-15 40 0 
1.36485 39.9534 0 
2.44921e-15 40 0 
-2.7297 39.9068 0 
-1.36485 39.9534 0 
-2.7297 39.9068 0 
-5.44667 39.6274 0 
-4.08818 39.7671 0 
-5.44667 39.6274 0 
-8.13824 39.1634 0 
-6.79245 39.3954 0 
-8.13824 39.1634 0 
-10.7919 38.5167 0 
-9.46506 38.84 0 
-10.7919 38.5167 0 
-13.3952 37.6904 0 
-12.0935 38.1036 0 
-13.3952 37.6904 0 
-15.936 36.6885 0 
-14.6656 37.1894 0 
-15.936 36.6885 0 
-18.4026 35.5154 0 
-17.1693 36.1019 0 
-18.4026 35.5154 0 
-20.7834 34.1768 0 
-19.593 34.8461 0 
-20.7834 34.1768 0 
-23.0672 32.6788 0 
-21.9253 33.4278 0 
-23.0672 32.6788 0 
-25.2435 31.0285 0 
-24.1554 31.8536 0 
-25.2435 31.0285 0 
-27.3021 29.2334 0 
-26.2728 30.1309 0 
-27.3021 29.2334 0 
-29.2334 27.3021 0 
-28.2678 28.2678 0 
-29.2334 27.3021 0 
-31.0285 25.2435 0 
-30.1309 26.2728 0 
-31.0285 25.2435 0 
-32.6788 23.0672 0 
-31.8536 24.1554 0 
-32.6788 23.0672 0 
-34.1768 20.7834 0 
-33.4278 21.9253 0 
-34.1768 20.7834 0 
-35.5154 18.4026 0 
-34.8461 19.593 0 
-35.5154 18.4026 0 
-36.6885 15.936 0 
-36.1019 17.1693 0 
-36.6885 15.936 0 
-37.6904 13.3952 0 
-37.1894 14.6656 0 
-37.6904 13.3952 0 
-38.5167 10.7919 0 
-38.1036 12.0935 0 
-38.5167 10.7919 0 
-39.1634 8.13824 0 
-38.84 9.46506 0 
-39.1634 8.13824 0 
-39.6274 5.44667 0 
-39.3954 6.79245 0 
-39.6274 5.44667 0 
-39.9068 2.7297 0 
-39.7671 4.08818 0 
-39.9068 2.7297 0 
-40 4.89843e-15 0 
-39.9534 1.36485 0 
-40 4.89843e-15 0 
-39.9068 -2.7297 0 
-39.9534 -1.36485 0 
-39.9068 -2.7297 0 
-39.6274 -5.44667 0 
-39.7671 -4.08818 0 
-39.6274 -5.44667 0 
-39.1634 -8.13824 0 
-39.3954 -6.79245 0 
-39.1634 -8.13824 0 
-38.5167 -10.7919 0 
-38.84 -9.46506 0 
-38.5167 -10.7919 0 
-37.6904 -13.3952 0 
-38.1036 -12.0935 0 
-37.6904 -13.3952 0 
-36.6885 -15.936 0 
-37.1894 -14.6656 0 
-36.6885 -15.936 0 
-35.5154 -18.4026 0 
-36.1019 -17.1693 0 
-35.5154 -18.4026 0 
-34.1768 -20.7834 0 
-34.8461 -19.593 0 
-34.1768 -20.7834 0 
-32.6788 -23.0672 0 
-33.4278 -21.9253 0 
-32.6788 -23.0672 0 
-31.0285 -25.2435 0 
-31.8536 -24.1554 0 
-31.0285 -25.2435 0 
-29.2334 -27.3021 0 
-30.1309 -26.2728 0 
-29.2334 -27.3021 0 
-27.3021 -29.2334 0 
-28.2678 -28.2678 0 
-27.3021 -29.2334 0 
-25.2435 -31.0285 0 
-26.2728 -30.1309 0 
-25.2435 -31.0285 0 
-23.0672 -32.6788 0 
-24.1554 -31.8536 0 
-23.0672 -32.6788 0 
-20.7834 -34.1768 0 
-21.9253 -33.4278 0 
-20.7834 -34.1768 0 
-18.4026 -35.5154 0 
-19.593 -34.8461 0 
-18.4026 -35.5154 0 
-15.936 -36.6885 0 
-17.1693 -36.1019 0 
-15.936 -36.6885 0 
-13.3952 -37.6904 0 
-14.6656 -37.1894 0 
-13.3952 -37.6904 0 
-10.7919 -38.5167 0 
-12.0935 -38.1036 0 
-10.7919 -38.5167 0 
-8.13824 -39.1634 0 
-9.46506 -38.84 0 
-8.13824 -39.1634 0 
-5.44667 -39.6274 0 
-6.79245 -39.3954 0 
-5.44667 -39.6274 0 
-2.7297 -39.9068 0 
-4.08818 -39.7671 0 
-2.7297 -39.9068 0 
-4.28748e-14 -40 0 
-1.36485 -39.9534 0 
-4.28748e-14 -40 0 
2.7297 -39.9068 0 
1.36485 -39.9534 0 
2.7297 -39.9068 0 
5.44667 -39.6274 0 
4.08818 -39.7671 0 
5.44667 -39.6274 0 
8.13824 -39.1634 0 
6.79245 -39.3954 0 
8.13824 -39.1634 0 
10.7919 -38.5167 0 
9.46506 -38.84 0 
10.7919 -38.5167 0 
13.3952 -37.6904 0 
12.0935 -38.1036 0 
13.3952 -37.6904 0 
15.936 -36.6885 0 
14.6656 -37.1894 0 
15.936 -36.6885 0 
18.4026 -35.5154 0 
17.1693 -36.1019 0 
18.4026 -35.5154 0 
20.7834 -34.1768 0 
19.593 -34.8461 0 
20.7834 -34.1768 0 
23.0672 -32.6788 0 
21.9253 -33.4278 0 
23.0672 -32.6788 0 
25.2435 -31.0285 0 
24.1554 -31.8536 0 
25.2435 -31.0285 0 
27.3021 -29.2334 0 
26.2728 -30.1309 0 
27.3021 -29.2334 0 
29.2334 -27.3021 0 
28.2678 -28.2678 0 
29.2334 -27.3021 0 
31.0285 -25.2435 0 
30.1309 -26.2728 0 
31.0285 -25.2435 0 
32.6788 -23.0672 0 
31.8536 -24.1554 0 
32.6788 -23.0672 0 
34.1768 -20.7834 0 
33.4278 -21.9253 0 
34.1768 -20.7834 0 
35.5154 -18.4026 0 
34.8461 -19.593 0 
35.5154 -18.4026 0 
36.6885 -15.936 0 
36.1019 -17.1693 0 
36.6885 -15.936 0 
37.6904 -13.3952 0 
37.1894 -14.6656 0 
37.6904 -13.3952 0 
38.5167 -10.7919 0 
38.1036 -12.0935 0 
38.5167 -10.7919 0 
39.1634 -8.13824 0 
38.84 -9.46506 0 
39.1634 -8.13824 0 
39.6274 -5.44667 0 
39.3954 -6.79245 0 
39.6274 -5.44667 0 
39.9068 -2.7297 0 
39.7671 -4.08818 0 
39.9068 -2.7297 0 
40 0 0 
39.9534 -1.36485 0 
[...]
CELL_DATA 880
FIELD FieldData 2
material 1 880 int
2
2
2
2
2
2
2
2
2
2
2
2
2
2
2
2
2
2
2
2
2
2
2
2
2
2
2
2
2
2
2
2
2
2
2
2
2
2
2
2
2
2
2
2
2
2
2
2
2
2
2
2
2
2
2
2
2
2
2
2
2
2
2
2
2
2
2
2
3
3
3
3
3
3
3
3
3
3
3
3
3
3
3
3
3
3
3
3
3
3
3
3
3
3
3
3
3
3
3
3
3
3
3
3
3
3
3
3
3
3
3
3
3
3
3
3
3
3
3
3
3
3
3
3
3
3
3
3
3
3
3
3
3
3
3
3
3
3
3
3
3
3
3
3
3
3
3
3
3
3
3
3
3
3
3
3
3
3
3
3
1
1
1
1
1
1
1
1
1
1
1
1
1
1
1
1
1
1
1
1
1
1
1
1
1
1
1
1
1
1
1
1
1
1
1
1
1
1
1
1
1
1
1
1
1
1
1
1
1
1
1
1
1
1
1
1
1
1
1
1
1
1
1
1
1
1
1
1
1
1
1
1
1
1
1
1
1
1
1
1
1
1
1
1
1
1
1
1
1
1
1
1
1
1
1
1
1
1
1
1
1
1
1
1
1
1
1
1
1
1
1
1
1
1
1
1
1
1
1
1
1
1
1
1
1
1
1
1
1
1
1
1
1
1
1
1
1
1
1
1
1
1
1
1
1
1
1
1
1
1
1
1
1
1
1
1
1
1
1
1
1
1
1
1
1
1
1
1
1
1
1
1
1
1
1
1
1
1
1
1
1
1
1
1
1
1
1
1
1
1
1
1
1
1
1
1
1
1
1
1
1
1
1
1
1
1
1
1
1
1
1
1
1
1
1
1
1
1
1
1
1
1
1
1
1
1
1
1
1
1
1
1
1
1
1
1
1
1
1
1
1
1
1
1
1
1
1
1
1
1
1
1
1
1
1
1
1
1
1
1
1
1
1
1
1
1
1
1
1
1
1
1
1
1
1
1
1
1
1
1
1
1
1
1
1
1
1
1
1
1
1
1
1
1
1
1
1
1
1
1
1
1
1
1
1
1
1
1
1
1
1
1
1
1
1
1
1
1
1
1
1
1
1
1
1
1
1
1
1
1
1
1
1
1
1
1
1
1
1
1
1
1
1
1
1
1
1
1
1
1
1
1
1
1
1
1
1
1
1
1
1
1
1
1
1
1
1
1
1
1
1
1
1
1
1
1
1
1
1
1
1
1
1
1
1
1
1
1
1
1
1
1
1
1
1
1
1
1
1
1
1
1
1
1
1
1
1
1
1
1
1
1
1
1
1
1
1
1
1
1
1
1
1
1
1
1
1
1
1
1
1
1
1
1
1
1
1
1
1
1
1
1
1
1
1
1
1
1
1
1
1
1
1
1
1
1
1
1
1
1
1
1
1
1
1
1
1
1
1
1
1
1
1
1
1
1
1
1
1
1
1
1
1
1
1
1
1
1
1
1
1
1
1
1
1
1
1
1
1
1
1
1
1
1
1
1
1
1
1
1
1
1
1
1
1
1
1
1
1
1
1
1
1
1
1
1
1
1
1
1
1
1
1
1
1
1
1
1
1
1
1
1
1
1
1
1
1
1
1
1
1
1
1
1
1
1
1
1
1
1
1
1
1
1
1
1
1
1
1
1
1
1
1
1
1
1
1
1
1
1
1
1
1
1
1
1
1
1
1
1
1
1
1
1
1
1
1
1
1
1
1
1
1
1
1
1
1
1
1
1
1
1
1
1
1
1
1
1
1
1
1
1
1
1
1
1
1
1
1
1
1
1
1
1
1
1
1
1
1
1
1
1
1
1
1
1
1
1
1
1
1
1
1
1
1
1
1
1
1
1
1
1
1
1
1
1
1
1
1
1
1
1
1
1
1
1
1
1
1
1
1
1
1
1
1
1
1
1
1
1
1
1
1
1
1
1
1
1
1
1
1
1
1
1
1
1
1
1
1
1
1
1
1
1
1
1
1
1
1
1
elindex 1 880 int
0
1
2
3
4
5
6
7
8
9
10
11
12
13
14
15
16
17
18
19
20
21
22
23
24
25
26
27
28
29
30
31
32
33
34
35
36
37
38
39
40
41
42
43
44
45
46
47
48
49
50
51
52
53
54
55
56
57
58
59
60
61
62
63
64
65
66
67
68
69
70
71
72
73
74
75
76
77
78
79
80
81
82
83
84
85
86
87
88
89
90
91
92
93
94
95
96
97
98
99
100
101
102
103
104
105
106
107
108
109
110
111
112
113
114
115
116
117
118
119
120
121
122
123
124
125
126
127
128
129
130
131
132
133
134
135
136
137
138
139
140
141
142
143
144
145
146
147
148
149
150
151
152
153
154
155
156
157
158
159
160
161
162
163
164
165
166
167
168
169
170
171
172
173
174
175
176
177
178
179
180
181
182
183
184
185
186
187
188
189
190
191
192
193
194
195
196
197
198
199
200
201
202
203
204
205
206
207
208
209
210
211
212
213
214
215
216
217
218
219
220
221
222
223
224
225
226
227
228
229
230
231
232
233
234
235
236
237
238
239
240
241
242
243
244
245
246
247
248
249
250
251
252
253
254
255
256
257
258
259
260
261
262
263
264
265
266
267
268
269
270
271
272
273
274
275
276
277
278
279
280
281
282
283
284
285
286
287
288
289
290
291
292
293
294
295
296
297
298
299
300
301
302
303
304
305
306
307
308
309
310
311
312
313
314
315
316
317
318
319
320
321
322
323
324
325
326
327
328
329
330
331
332
333
334
335
336
337
338
339
340
341
342
343
344
345
346
347
348
349
350
351
352
353
354
355
356
357
358
359
360
361
362
363
364
365
366
367
368
369
370
371
372
373
374
375
376
377
378
379
380
381
382
383
384
385
386
387
388
389
390
391
392
393
394
395
396
397
398
399
400
401
402
403
404
405
406
407
408
409
410
411
412
413
414
415
416
417
418
419
420
421
422
423
424
425
426
427
428
429
430
431
432
433
434
435
436
437
438
439
440
441
442
443
444
445
446
447
448
449
450
451
452
453
454
455
456
457
458
459
460
461
462
463
464
465
466
467
468
469
470
471
472
473
474
475
476
477
478
479
480
481
482
483
484
485
486
487
488
489
490
491
492
493
494
495
496
497
498
499
500
501
502
503
504
505
506
507
508
509
510
511
512
513
514
515
516
517
518
519
520
521
522
523
524
525
526
527
528
529
530
531
532
533
534
535
536
537
538
539
540
541
542
543
544
545
546
547
548
549
550
551
552
553
554
555
556
557
558
559
560
561
562
563
564
565
566
567
568
569
570
571
572
573
574
575
576
577
578
579
580
581
582
583
584
585
586
587
588
589
590
591
592
593
594
595
596
597
598
599
600
601
602
603
604
605
606
607
608
609
610
611
612
613
614
615
616
617
618
619
620
621
622
623
624
625
626
627
628
629
630
631
632
633
634
635
636
637
638
639
640
641
642
643
644
645
646
647
648
649
650
651
652
653
654
655
656
657
658
659
660
661
662
663
664
665
666
667
668
669
670
671
672
673
674
675
676
677
678
679
680
681
682
683
684
685
686
687
688
689
690
691
692
693
694
695
696
697
698
699
700
701
702
703
704
705
706
707
708
709
710
711
712
713
714
715
716
717
718
719
720
721
722
723
724
725
726
727
728
729
730
731
732
733
734
735
736
737
738
739
740
741
742
743
744
745
746
747
748
749
750
751
752
753
754
755
756
757
758
759
760
761
762
763
764
765
766
767
768
769
770
771
772
773
774
775
776
777
778
779
780
781
782
783
784
785
786
787
788
789
790
791
792
793
794
795
796
797
798
799
800
801
802
803
804
805
806
807
808
809
810
811
812
813
814
815
816
817
818
819
820
821
822
823
824
825
826
827
828
829
830
831
832
833
834
835
836
837
838
839
840
841
842
843
844
845
846
847
848
849
850
851
852
853
854
855
856
857
858
859
860
861
862
863
864
865
866
867
868
869
870
871
872
873
874
875
876
877
878
879
POINT_DATA 4800
VECTORS Displacement float
0.0066979 0.00187488 0 
0.006733 0.00158508 0 
0.0067681 0.00129529 0 
0.00658079 0.00245013 0 
0.00663934 0.00216251 0 
0.0066979 0.00187488 0 
0.00640585 0.00299947 0 
0.00649332 0.0027248 0 
0.00658079 0.00245013 0 
0.00622133 0.00355017 0 
0.00631359 0.00327482 0 
0.00640585 0.00299947 0 
0.00592551 0.0040503 0 
0.00607342 0.00380023 0 
0.00622133 0.00355017 0 
0.00561159 0.00454403 0 
0.00576855 0.00429716 0 
0.00592551 0.0040503 0 
0.00527931 0.00501786 0 
0.00544545 0.00478095 0 
0.00561159 0.00454403 0 
0.00485765 0.00541922 0 
0.00506848 0.00521854 0 
0.00527931 0.00501786 0 
0.00441841 0.00580883 0 
0.00463803 0.00561403 0 
0.00485765 0.00541922 0 
0.00397221 0.0061765 0 
0.00419531 0.00599267 0 
0.00441841 0.00580883 0 
0.00345871 0.00645088 0 
0.00371546 0.00631369 0 
0.00397221 0.0061765 0 
0.00293082 0.00670351 0 
0.00319477 0.00657719 0 
0.00345871 0.00645088 0 
0.00240234 0.00693514 0 
0.00266658 0.00681932 0 
0.00293082 0.00670351 0 
0.00182933 0.00705314 0 
0.00211583 0.00699414 0 
0.00240234 0.00693514 0 
0.00126391 0.00715979 0 
0.00154662 0.00710646 0 
0.00182933 0.00705314 0 
0.000678947 0.00720743 0 
0.000971431 0.00718361 0 
0.00126391 0.00715979 0 
9.61004e-05 0.00720757 0 
0.000387524 0.0072075 0 
0.000678947 0.00720743 0 
-0.000448413 0.00716508 0 
-0.000176156 0.00718633 0 
9.61004e-05 0.00720757 0 
-0.00101817 0.00701739 0 
-0.00073329 0.00709123 0 
-0.000448413 0.00716508 0 
-0.00158248 0.00685333 0 
-0.00130032 0.00693536 0 
-0.00101817 0.00701739 0 
-0.00212915 0.00666102 0 
-0.00185582 0.00675718 0 
-0.00158248 0.00685333 0 
-0.00262942 0.00636353 0 
-0.00237929 0.00651228 0 
-0.00212915 0.00666102 0 
-0.00312315 0.00604988 0 
-0.00287629 0.00620671 0 
-0.00262942 0.00636353 0 
-0.00359701 0.00571774 0 
-0.00336008 0.00588381 0 
-0.00312315 0.00604988 0 
-0.00399846 0.00529623 0 
-0.00379773 0.00550699 0 
-0.00359701 0.00571774 0 
-0.00438816 0.00485713 0 
-0.00419331 0.00507668 0 
-0.00399846 0.00529623 0 
-0.00475593 0.00441105 0 
-0.00457205 0.00463409 0 
-0.00438816 0.00485713 0 
-0.00503041 0.00389764 0 
-0.00489317 0.00415434 0 
-0.00475593 0.00441105 0 
-0.00528314 0.00336983 0 
-0.00515678 0.00363373 0 
-0.00503041 0.00389764 0 
-0.00551487 0.0028414 0 
-0.00539901 0.00310562 0 
-0.00528314 0.00336983 0 
-0.00563298 0.00226845 0 
-0.00557393 0.00255493 0 
-0.00551487 0.0028414 0 
-0.00573973 0.00170308 0 
-0.00568635 0.00198576 0 
-0.00563298 0.00226845 0 
-0.00578745 0.00111815 0 
-0.00576359 0.00141061 0 
-0.00573973 0.00170308 0 
-0.00578768 0.00053533 0 
-0.00578757 0.000826738 0 
-0.00578745 0.00111815 0 
-0.00574525 -9.16155e-06 0 
-0.00576646 0.000263084 0 
-0.00578768 0.00053533 0 
-0.00559761 -0.000578892 0 
-0.00567143 -0.000294027 0 
-0.00574525 -9.16155e-06 0 
-0.00543359 -0.00114318 0 
-0.0055156 -0.000861036 0 
-0.00559761 -0.000578892 0 
-0.0052413 -0.00168982 0 
-0.00533744 -0.0014165 0 
-0.00543359 -0.00114318 0 
-0.00494381 -0.00219006 0 
-0.00509255 -0.00193994 0 
-0.0052413 -0.00168982 0 
-0.00463012 -0.00268375 0 
-0.00478696 -0.0024369 0 
-0.00494381 -0.00219006 0 
-0.00429793 -0.00315761 0 
-0.00446402 -0.00292068 0 
-0.00463012 -0.00268375 0 
-0.00387632 -0.00355912 0 
-0.00408713 -0.00335837 0 
-0.00429793 -0.00315761 0 
-0.00343735 -0.0039487 0 
-0.00365683 -0.00375391 0 
-0.00387632 -0.00355912 0 
-0.00299119 -0.00431655 0 
-0.00321427 -0.00413262 0 
-0.00343735 -0.0039487 0 
-0.00247778 -0.00459109 0 
-0.00273449 -0.00445382 0 
-0.00299119 -0.00431655 0 
-0.00195001 -0.00484384 0 
-0.0022139 -0.00471747 0 
-0.00247778 -0.00459109 0 
-0.00142162 -0.00507557 0 
-0.00168581 -0.00495971 0 
-0.00195001 -0.00484384 0 
-0.000848689 -0.00519366 0 
-0.00113515 -0.00513461 0 
-0.00142162 -0.00507557 0 
-0.000283339 -0.00530037 0 
-0.000566014 -0.00524701 0 
-0.000848689 -0.00519366 0 
0.000301573 -0.00534804 0 
9.1171e-06 -0.00532421 0 
-0.000283339 -0.00530037 0 
0.000884368 -0.0053482 0 
0.00059297 -0.00534812 0 
0.000301573 -0.00534804 0 
0.00142884 -0.0053057 0 
0.0011566 -0.00532695 0 
0.000884368 -0.0053482 0 
0.00199854 -0.00515798 0 
0.00171369 -0.00523184 0 
0.00142884 -0.0053057 0 
0.00256279 -0.00499386 0 
0.00228066 -0.00507592 0 
0.00199854 -0.00515798 0 
0.00310938 -0.00480148 0 
0.00283609 -0.00489767 0 
0.00256279 -0.00499386 0 
0.00360956 -0.0045039 0 
0.00335947 -0.00465269 0 
0.00310938 -0.00480148 0 
0.00410319 -0.00419013 0 
0.00385638 -0.00434701 0 
0.00360956 -0.0045039 0 
0.00457693 -0.00385787 0 
0.00434006 -0.004024 0 
0.00410319 -0.00419013 0 
0.00497826 -0.00343622 0 
0.0047776 -0.00364705 0 
0.00457693 -0.00385787 0 
0.00536785 -0.002997 0 
0.00517306 -0.00321661 0 
0.00497826 -0.00343622 0 
0.0057355 -0.00255083 0 
0.00555167 -0.00277392 0 
0.00536785 -0.002997 0 
0.00600986 -0.00203742 0 
0.00587268 -0.00229412 0 
0.0057355 -0.00255083 0 
0.00626232 -0.00150963 0 
0.00613609 -0.00177352 0 
0.00600986 -0.00203742 0 
0.00649571 -0.000981096 0 
0.00637901 -0.00124536 0 
0.00626232 -0.00150963 0 
0.00662157 -0.000412183 0 
0.00655864 -0.000696639 0 
0.00649571 -0.000981096 0 
0.0067174 0.00016815 0 
0.00666948 -0.000122016 0 
0.00662157 -0.000412183 0 
0.00679565 0.000747562 0 
0.00675652 0.000457856 0 
0.0067174 0.00016815 0 
0.0067681 0.00129529 0 
0.00678187 0.00102143 0 
0.00679565 0.000747562 0 
0.00269508 0.00144934 0 
0.00267004 0.00151896 0 
0.00264499 0.00158857 0 
0.00264499 0.00158857 0 
0.00261479 0.00166497 0 
0.0025846 0.00174138 0 
0.0025846 0.00174138 0 
0.0025538 0.00180536 0 
0.002523 0.00186933 0 
0.002523 0.00186933 0 
0.00249708 0.00193584 0 
0.00247117 0.00200234 0 
0.00247117 0.00200234 0 
0.00243136 0.00207472 0 
0.00239155 0.0021471 0 
0.00239155 0.0021471 0 
0.00234738 0.00220558 0 
0.00230321 0.00226407 0 
0.00230321 0.00226407 0 
0.00225271 0.0023301 0 
0.0022022 0.00239612 0 
0.0022022 0.00239612 0 
0.00215224 0.00244712 0 
0.00210228 0.00249813 0 
0.00210228 0.00249813 0 
0.00204138 0.00255467 0 
0.00198049 0.00261121 0 
0.00198049 0.00261121 0 
0.00192528 0.00265443 0 
0.00187008 0.00269764 0 
0.00187008 0.00269764 0 
0.00180507 0.00274808 0 
0.00174007 0.00279852 0 
0.00174007 0.00279852 0 
0.00167945 0.00283469 0 
0.00161882 0.00287085 0 
0.00161882 0.00287085 0 
0.00154565 0.00290979 0 
0.00147248 0.00294872 0 
0.00147248 0.00294872 0 
0.00140837 0.00297636 0 
0.00134426 0.00300401 0 
0.00134426 0.00300401 0 
0.00126875 0.00303598 0 
0.00119324 0.00306796 0 
0.00119324 0.00306796 0 
0.00112529 0.00308777 0 
0.00105734 0.00310758 0 
0.00105734 0.00310758 0 
0.000976462 0.00312685 0 
0.000895586 0.00314613 0 
0.000895586 0.00314613 0 
0.000824418 0.00315813 0 
0.00075325 0.00317012 0 
0.00075325 0.00317012 0 
0.000670416 0.00317697 0 
0.000587582 0.00318383 0 
0.000587582 0.00318383 0 
0.0005129 0.00317615 0 
0.000438218 0.00316847 0 
0.000438218 0.00316847 0 
0.000368373 0.0031652 0 
0.000298527 0.00316193 0 
0.000298527 0.00316193 0 
0.000218598 0.00315774 0 
0.000138668 0.00315355 0 
0.000138668 0.00315355 0 
6.78797e-05 0.00314406 0 
-2.90869e-06 0.00313456 0 
-2.90869e-06 0.00313456 0 
-8.30725e-05 0.00311466 0 
-0.000163236 0.00309476 0 
-0.000163236 0.00309476 0 
-0.000239224 0.00307114 0 
-0.000315212 0.00304752 0 
-0.000315212 0.00304752 0 
-0.000388835 0.00301593 0 
-0.000462458 0.00298435 0 
-0.000462458 0.00298435 0 
-0.000526035 0.0029496 0 
-0.000589613 0.00291485 0 
-0.000589613 0.00291485 0 
-0.000660277 0.00286994 0 
-0.000730942 0.00282504 0 
-0.000730942 0.00282504 0 
-0.000787256 0.0027825 0 
-0.00084357 0.00273996 0 
-0.00084357 0.00273996 0 
-0.000909165 0.00268994 0 
-0.00097476 0.00263991 0 
-0.00097476 0.00263991 0 
-0.0010256 0.00259025 0 
-0.00107644 0.00254058 0 
-0.00107644 0.00254058 0 
-0.00113304 0.00247986 0 
-0.00118964 0.00241914 0 
-0.00118964 0.00241914 0 
-0.0012329 0.00236407 0 
-0.00127616 0.00230901 0 
-0.00127616 0.00230901 0 
-0.00132666 0.00224417 0 
-0.00137717 0.00217932 0 
-0.00137717 0.00217932 0 
-0.00141358 0.00211858 0 
-0.00145 0.00205783 0 
-0.00145 0.00205783 0 
-0.00148891 0.00198471 0 
-0.00152782 0.0019116 0 
-0.00152782 0.0019116 0 
-0.0015555 0.00184755 0 
-0.00158317 0.0017835 0 
-0.00158317 0.0017835 0 
-0.0016152 0.00170803 0 
-0.00164724 0.00163256 0 
-0.00164724 0.00163256 0 
-0.00166711 0.00156465 0 
-0.00168698 0.00149673 0 
-0.00168698 0.00149673 0 
-0.00170631 0.00141588 0 
-0.00172565 0.00133502 0 
-0.00172565 0.00133502 0 
-0.0017377 0.00126387 0 
-0.00174975 0.00119272 0 
-0.00174975 0.00119272 0 
-0.00175666 0.00110989 0 
-0.00176357 0.00102707 0 
-0.00176357 0.00102707 0 
-0.00175594 0.000952395 0 
-0.00174831 0.000877717 0 
-0.00174831 0.000877717 0 
-0.00174509 0.000807871 0 
-0.00174187 0.000738026 0 
-0.00174187 0.000738026 0 
-0.00173772 0.000658092 0 
-0.00173358 0.000578158 0 
-0.00173358 0.000578158 0 
-0.00172412 0.000507361 0 
-0.00171466 0.000436564 0 
-0.00171466 0.000436564 0 
-0.00169479 0.000356389 0 
-0.00167492 0.000276215 0 
-0.00167492 0.000276215 0 
-0.00165133 0.000200214 0 
-0.00162773 0.000124213 0 
-0.00162773 0.000124213 0 
-0.00159616 5.05761e-05 0 
-0.00156459 -2.30607e-05 0 
-0.00156459 -2.30607e-05 0 
-0.00152985 -8.66531e-05 0 
-0.00149512 -0.000150245 0 
-0.00149512 -0.000150245 0 
-0.00145022 -0.000220922 0 
-0.00140532 -0.000291599 0 
-0.00140532 -0.000291599 0 
-0.00136278 -0.000347926 0 
-0.00132023 -0.000404253 0 
-0.00132023 -0.000404253 0 
-0.0012702 -0.00046986 0 
-0.00122017 -0.000535466 0 
-0.00122017 -0.000535466 0 
-0.00117049 -0.000586323 0 
-0.00112081 -0.00063718 0 
-0.00112081 -0.00063718 0 
-0.00106008 -0.000693818 0 
-0.000999338 -0.000750456 0 
-0.000999338 -0.000750456 0 
-0.00094414 -0.000793793 0 
-0.000888942 -0.000837129 0 
-0.000888942 -0.000837129 0 
-0.000823792 -0.000887661 0 
-0.000758642 -0.000938193 0 
-0.000758642 -0.000938193 0 
-0.000698518 -0.000973982 0 
-0.000638395 -0.00100977 0 
-0.000638395 -0.00100977 0 
-0.00056525 -0.00104899 0 
-0.000492104 -0.00108821 0 
-0.000492104 -0.00108821 0 
-0.000427976 -0.00111601 0 
-0.000363848 -0.00114381 0 
-0.000363848 -0.00114381 0 
-0.000288344 -0.00117586 0 
-0.00021284 -0.00120792 0 
-0.00021284 -0.00120792 0 
-0.000144902 -0.0012278 0 
-7.69643e-05 -0.00124768 0 
-7.69643e-05 -0.00124768 0 
3.90017e-06 -0.00126702 0 
8.47647e-05 -0.00128635 0 
8.47647e-05 -0.00128635 0 
0.000155929 -0.00129841 0 
0.000227094 -0.00131046 0 
0.000227094 -0.00131046 0 
0.00030993 -0.00131736 0 
0.000392766 -0.00132426 0 
0.000392766 -0.00132426 0 
0.000467457 -0.00131662 0 
0.000542148 -0.00130898 0 
0.000542148 -0.00130898 0 
0.000612008 -0.00130574 0 
0.000681867 -0.00130251 0 
0.000681867 -0.00130251 0 
0.000761813 -0.00129833 0 
0.000841759 -0.00129416 0 
0.000841759 -0.00129416 0 
0.000912566 -0.00128467 0 
0.000983373 -0.00127518 0 
0.000983373 -0.00127518 0 
0.00106355 -0.00125528 0 
0.00114374 -0.00123537 0 
0.00114374 -0.00123537 0 
0.00121974 -0.00121174 0 
0.00129574 -0.0011881 0 
0.00129574 -0.0011881 0 
0.00136938 -0.00115649 0 
0.00144302 -0.00112487 0 
0.00144302 -0.00112487 0 
0.0015066 -0.00109009 0 
0.00157019 -0.0010553 0 
0.00157019 -0.0010553 0 
0.00164086 -0.00101035 0 
0.00171152 -0.000965397 0 
0.00171152 -0.000965397 0 
0.00176784 -0.000922804 0 
0.00182415 -0.00088021 0 
0.00182415 -0.00088021 0 
0.00188973 -0.000830125 0 
0.00195531 -0.00078004 0 
0.00195531 -0.00078004 0 
0.00200613 -0.000730305 0 
0.00205695 -0.000680569 0 
0.00205695 -0.000680569 0 
0.00211354 -0.000619777 0 
0.00217012 -0.000558985 0 
0.00217012 -0.000558985 0 
0.00221336 -0.000503814 0 
0.0022566 -0.000448642 0 
0.0022566 -0.000448642 0 
0.00230706 -0.000383643 0 
0.00235753 -0.000318643 0 
0.00235753 -0.000318643 0 
0.0023937 -0.000258006 0 
0.00242988 -0.000197368 0 
0.00242988 -0.000197368 0 
0.00246881 -0.000124171 0 
0.00250774 -5.0974e-05 0 
0.00250774 -5.0974e-05 0 
0.00253534 1.31655e-05 0 
0.00256295 7.7305e-05 0 
0.00256295 7.7305e-05 0 
0.00259482 0.000152855 0 
0.00262669 0.000228404 0 
0.00262669 0.000228404 0 
0.00264627 0.000296173 0 
0.00266586 0.000363942 0 
0.00266586 0.000363942 0 
0.00268471 0.000444375 0 
0.00270356 0.000524808 0 
0.00270356 0.000524808 0 
0.00271398 0.0005938 0 
0.0027244 0.000662793 0 
0.0027244 0.000662793 0 
0.00273639 0.000743914 0 
0.00274838 0.000825035 0 
0.00274838 0.000825035 0 
0.00274957 0.000896802 0 
0.00275077 0.000968568 0 
0.00275077 0.000968568 0 
0.00274831 0.00104807 0 
0.00274586 0.00112757 0 
0.00274586 0.00112757 0 
0.0027351 0.0012071 0 
0.00272435 0.00128663 0 
0.00272435 0.00128663 0 