# vtk DataFile Version 3.0
TPZGeoMesh VTK Visualization
ASCII

DATASET UNSTRUCTURED_GRID
POINTS 1296 float
30 0 0 
29.4892 5.51249 0 
29.7446 2.75624 0 
29.4892 5.51249 0 
27.9742 10.8372 0 
28.7317 8.17487 0 
27.9742 10.8372 0 
25.5065 15.793 0 
26.7403 13.3151 0 
25.5065 15.793 0 
22.1703 20.2109 0 
23.8384 18.0019 0 
22.1703 20.2109 0 
18.079 23.9405 0 
20.1247 22.0757 0 
18.079 23.9405 0 
13.3722 26.8549 0 
15.7256 25.3977 0 
13.3722 26.8549 0 
8.20989 28.8548 0 
10.791 27.8548 0 
8.20989 28.8548 0 
2.76805 29.872 0 
5.48897 29.3634 0 
2.76805 29.872 0 
-2.76805 29.872 0 
8.65974e-15 29.872 0 
-2.76805 29.872 0 
-8.20989 28.8548 0 
-5.48897 29.3634 0 
-8.20989 28.8548 0 
-13.3722 26.8549 0 
-10.791 27.8548 0 
-13.3722 26.8549 0 
-18.079 23.9405 0 
-15.7256 25.3977 0 
-18.079 23.9405 0 
-22.1703 20.2109 0 
-20.1247 22.0757 0 
-22.1703 20.2109 0 
-25.5065 15.793 0 
-23.8384 18.0019 0 
-25.5065 15.793 0 
-27.9742 10.8372 0 
-26.7403 13.3151 0 
-27.9742 10.8372 0 
-29.4892 5.51249 0 
-28.7317 8.17487 0 
-29.4892 5.51249 0 
-30 -2.29715e-14 0 
-29.7446 2.75624 0 
-30 -2.29715e-14 0 
-29.4892 -5.51249 0 
-29.7446 -2.75624 0 
-29.4892 -5.51249 0 
-27.9742 -10.8372 0 
-28.7317 -8.17487 0 
-27.9742 -10.8372 0 
-25.5065 -15.793 0 
-26.7403 -13.3151 0 
-25.5065 -15.793 0 
-22.1703 -20.2109 0 
-23.8384 -18.0019 0 
-22.1703 -20.2109 0 
-18.079 -23.9405 0 
-20.1247 -22.0757 0 
-18.079 -23.9405 0 
-13.3722 -26.8549 0 
-15.7256 -25.3977 0 
-13.3722 -26.8549 0 
-8.20989 -28.8548 0 
-10.791 -27.8548 0 
-8.20989 -28.8548 0 
-2.76805 -29.872 0 
-5.48897 -29.3634 0 
-2.76805 -29.872 0 
2.76805 -29.872 0 
7.99361e-15 -29.872 0 
2.76805 -29.872 0 
8.20989 -28.8548 0 
5.48897 -29.3634 0 
8.20989 -28.8548 0 
13.3722 -26.8549 0 
10.791 -27.8548 0 
13.3722 -26.8549 0 
18.079 -23.9405 0 
15.7256 -25.3977 0 
18.079 -23.9405 0 
22.1703 -20.2109 0 
20.1247 -22.0757 0 
22.1703 -20.2109 0 
25.5065 -15.793 0 
23.8384 -18.0019 0 
25.5065 -15.793 0 
27.9742 -10.8372 0 
26.7403 -13.3151 0 
27.9742 -10.8372 0 
29.4892 -5.51249 0 
28.7317 -8.17487 0 
29.4892 -5.51249 0 
30 0 0 
29.7446 -2.75624 0 
40 0 0 
39.6274 5.44667 0 
39.8137 2.72333 0 
39.6274 5.44667 0 
38.5167 10.7919 0 
39.0721 8.11927 0 
38.5167 10.7919 0 
36.6885 15.936 0 
37.6026 13.364 0 
36.6885 15.936 0 
34.1768 20.7834 0 
35.4326 18.3597 0 
34.1768 20.7834 0 
31.0285 25.2435 0 
32.6026 23.0134 0 
31.0285 25.2435 0 
27.3021 29.2334 0 
29.1653 27.2385 0 
27.3021 29.2334 0 
23.0672 32.6788 0 
25.1847 30.9561 0 
23.0672 32.6788 0 
18.4026 35.5154 0 
20.7349 34.0971 0 
18.4026 35.5154 0 
13.3952 37.6904 0 
15.8989 36.6029 0 
13.3952 37.6904 0 
8.13824 39.1634 0 
10.7667 38.4269 0 
8.13824 39.1634 0 
2.7297 39.9068 0 
5.43397 39.5351 0 
2.7297 39.9068 0 
-2.7297 39.9068 0 
7.10543e-15 39.9068 0 
-2.7297 39.9068 0 
-8.13824 39.1634 0 
-5.43397 39.5351 0 
-8.13824 39.1634 0 
-13.3952 37.6904 0 
-10.7667 38.4269 0 
-13.3952 37.6904 0 
-18.4026 35.5154 0 
-15.8989 36.6029 0 
-18.4026 35.5154 0 
-23.0672 32.6788 0 
-20.7349 34.0971 0 
-23.0672 32.6788 0 
-27.3021 29.2334 0 
-25.1847 30.9561 0 
-27.3021 29.2334 0 
-31.0285 25.2435 0 
-29.1653 27.2385 0 
-31.0285 25.2435 0 
-34.1768 20.7834 0 
-32.6026 23.0134 0 
-34.1768 20.7834 0 
-36.6885 15.936 0 
-35.4326 18.3597 0 
-36.6885 15.936 0 
-38.5167 10.7919 0 
-37.6026 13.364 0 
-38.5167 10.7919 0 
-39.6274 5.44667 0 
-39.0721 8.11927 0 
-39.6274 5.44667 0 
-40 4.89843e-15 0 
-39.8137 2.72333 0 
-40 4.89843e-15 0 
-39.6274 -5.44667 0 
-39.8137 -2.72333 0 
-39.6274 -5.44667 0 
-38.5167 -10.7919 0 
-39.0721 -8.11927 0 
-38.5167 -10.7919 0 
-36.6885 -15.936 0 
-37.6026 -13.364 0 
-36.6885 -15.936 0 
-34.1768 -20.7834 0 
-35.4326 -18.3597 0 
-34.1768 -20.7834 0 
-31.0285 -25.2435 0 
-32.6026 -23.0134 0 
-31.0285 -25.2435 0 
-27.3021 -29.2334 0 
-29.1653 -27.2385 0 
-27.3021 -29.2334 0 
-23.0672 -32.6788 0 
-25.1847 -30.9561 0 
-23.0672 -32.6788 0 
-18.4026 -35.5154 0 
-20.7349 -34.0971 0 
-18.4026 -35.5154 0 
-13.3952 -37.6904 0 
-15.8989 -36.6029 0 
-13.3952 -37.6904 0 
-8.13824 -39.1634 0 
-10.7667 -38.4269 0 
-8.13824 -39.1634 0 
-2.7297 -39.9068 0 
-5.43397 -39.5351 0 
-2.7297 -39.9068 0 
2.7297 -39.9068 0 
-2.5091e-14 -39.9068 0 
2.7297 -39.9068 0 
8.13824 -39.1634 0 
5.43397 -39.5351 0 
8.13824 -39.1634 0 
13.3952 -37.6904 0 
10.7667 -38.4269 0 
13.3952 -37.6904 0 
18.4026 -35.5154 0 
15.8989 -36.6029 0 
18.4026 -35.5154 0 
23.0672 -32.6788 0 
20.7349 -34.0971 0 
23.0672 -32.6788 0 
27.3021 -29.2334 0 
25.1847 -30.9561 0 
27.3021 -29.2334 0 
31.0285 -25.2435 0 
29.1653 -27.2385 0 
31.0285 -25.2435 0 
34.1768 -20.7834 0 
32.6026 -23.0134 0 
34.1768 -20.7834 0 
36.6885 -15.936 0 
35.4326 -18.3597 0 
36.6885 -15.936 0 
38.5167 -10.7919 0 
37.6026 -13.364 0 
38.5167 -10.7919 0 
39.6274 -5.44667 0 
39.0721 -8.11927 0 
39.6274 -5.44667 0 
40 0 0 
39.8137 -2.72333 0 
-39.6274 -5.44667 0 
-33.9928 -8.15188 0 
-34.5433 -3.00988 0 
-36.8101 -6.79927 0 
-34.2681 -5.58088 0 
-37.0854 -4.22827 0 
39.6274 5.44667 0 
33.9928 8.15188 0 
34.5433 3.00988 0 
36.8101 6.79927 0 
34.2681 5.58088 0 
37.0854 4.22827 0 
23.0672 -32.6788 0 
22.6452 -26.7168 0 
18.1187 -29.4683 0 
22.8562 -29.6978 0 
20.382 -28.0926 0 
20.593 -31.0736 0 
-23.0672 -32.6788 0 
-18.1187 -29.4683 0 
-22.6452 -26.7168 0 
-20.593 -31.0736 0 
-20.382 -28.0926 0 
-22.8562 -29.6978 0 
23.0672 32.6788 0 
18.1187 29.4683 0 
22.6452 26.7168 0 
20.593 31.0736 0 
20.382 28.0926 0 
22.8562 29.6978 0 
-23.0672 32.6788 0 
-22.6452 26.7168 0 
-18.1187 29.4683 0 
-22.8562 29.6978 0 
-20.382 28.0926 0 
-20.593 31.0736 0 
-39.6274 -5.44667 0 
-38.5167 -10.7919 0 
-33.9928 -8.15188 0 
-39.0721 -8.11927 0 
-36.2548 -9.47187 0 
-36.8101 -6.79927 0 
38.5167 10.7919 0 
33.9928 8.15188 0 
39.6274 5.44667 0 
36.2548 9.47187 0 
36.8101 6.79927 0 
39.0721 8.11927 0 
2.7297 -39.9068 0 
5.32078 -34.6406 0 
-1.60663e-15 -34.5917 0 
4.02524 -37.2737 0 
2.66039 -34.6162 0 
1.36485 -37.2492 0 
-2.7297 39.9068 0 
-5.32078 34.6406 0 
7.79326e-15 34.5917 0 
-4.02524 37.2737 0 
-2.66039 34.6162 0 
-1.36485 37.2492 0 
2.7297 39.9068 0 
7.79326e-15 34.5917 0 
5.32078 34.6406 0 
1.36485 37.2492 0 
2.66039 34.6162 0 
4.02524 37.2737 0 
-2.7297 -39.9068 0 
-1.60663e-15 -34.5917 0 
-5.32078 -34.6406 0 
-1.36485 -37.2492 0 
-2.66039 -34.6162 0 
-4.02524 -37.2737 0 
27.3021 -29.2334 0 
22.6452 -26.7168 0 
23.0672 -32.6788 0 
24.9737 -27.9751 0 
22.8562 -29.6978 0 
25.1847 -30.9561 0 
-23.0672 -32.6788 0 
-22.6452 -26.7168 0 
-27.3021 -29.2334 0 
-22.8562 -29.6978 0 
-24.9737 -27.9751 0 
-25.1847 -30.9561 0 
27.3021 29.2334 0 
23.0672 32.6788 0 
22.6452 26.7168 0 
25.1847 30.9561 0 
22.8562 29.6978 0 
24.9737 27.9751 0 
-23.0672 32.6788 0 
-27.3021 29.2334 0 
-22.6452 26.7168 0 
-25.1847 30.9561 0 
-24.9737 27.9751 0 
-22.8562 29.6978 0 
-18.4026 -35.5154 0 
-13.5962 -32.3065 0 
-18.1187 -29.4683 0 
-15.9994 -33.911 0 
-15.8575 -30.8874 0 
-18.2607 -32.4919 0 
18.4026 35.5154 0 
13.5962 32.3065 0 
18.1187 29.4683 0 
15.9994 33.911 0 
15.8575 30.8874 0 
18.2607 32.4919 0 
-18.4026 35.5154 0 
-18.1187 29.4683 0 
-13.5962 32.3065 0 
-18.2607 32.4919 0 
-15.8575 30.8874 0 
-15.9994 33.911 0 
18.4026 -35.5154 0 
18.1187 -29.4683 0 
13.5962 -32.3065 0 
18.2607 -32.4919 0 
15.8575 -30.8874 0 
15.9994 -33.911 0 
8.13824 -39.1634 0 
5.32078 -34.6406 0 
2.7297 -39.9068 0 
6.72951 -36.902 0 
4.02524 -37.2737 0 
5.43397 -39.5351 0 
-2.7297 -39.9068 0 
-5.32078 -34.6406 0 
-8.13824 -39.1634 0 
-4.02524 -37.2737 0 
-6.72951 -36.902 0 
-5.43397 -39.5351 0 
8.13824 39.1634 0 
2.7297 39.9068 0 
5.32078 34.6406 0 
5.43397 39.5351 0 
4.02524 37.2737 0 
6.72951 36.902 0 
-2.7297 39.9068 0 
-8.13824 39.1634 0 
-5.32078 34.6406 0 
-5.43397 39.5351 0 
-6.72951 36.902 0 
-4.02524 37.2737 0 
18.079 -23.9405 0 
18.1187 -29.4683 0 
22.6452 -26.7168 0 
18.0989 -26.7044 0 
20.382 -28.0926 0 
20.3621 -25.3287 0 
18.079 23.9405 0 
22.6452 26.7168 0 
18.1187 29.4683 0 
20.3621 25.3287 0 
20.382 28.0926 0 
18.0989 26.7044 0 
-18.079 23.9405 0 
-18.1187 29.4683 0 
-22.6452 26.7168 0 
-18.0989 26.7044 0 
-20.382 28.0926 0 
-20.3621 25.3287 0 
-18.079 -23.9405 0 
-22.6452 -26.7168 0 
-18.1187 -29.4683 0 
-20.3621 -25.3287 0 
-20.382 -28.0926 0 
-18.0989 -26.7044 0 
-34.1768 -20.7834 0 
-28.4971 -20.5095 0 
-30.9669 -16.2571 0 
-31.3369 -20.6464 0 
-29.732 -18.3833 0 
-32.5718 -18.5202 0 
34.1768 20.7834 0 
28.4971 20.5095 0 
30.9669 16.2571 0 
31.3369 20.6464 0 
29.732 18.3833 0 
32.5718 18.5202 0 
-34.1768 20.7834 0 
-30.9669 16.2571 0 
-28.4971 20.5095 0 
-32.5718 18.5202 0 
-29.732 18.3833 0 
-31.3369 20.6464 0 
34.1768 -20.7834 0 
30.9669 -16.2571 0 
28.4971 -20.5095 0 
32.5718 -18.5202 0 
29.732 -18.3833 0 
31.3369 -20.6464 0 
-13.3952 -37.6904 0 
-13.5962 -32.3065 0 
-18.4026 -35.5154 0 
-13.4957 -34.9985 0 
-15.9994 -33.911 0 
-15.8989 -36.6029 0 
18.4026 35.5154 0 
13.3952 37.6904 0 
13.5962 32.3065 0 
15.8989 36.6029 0 
13.4957 34.9985 0 
15.9994 33.911 0 
-13.3952 37.6904 0 
-18.4026 35.5154 0 
-13.5962 32.3065 0 
-15.8989 36.6029 0 
-15.9994 33.911 0 
-13.4957 34.9985 0 
18.4026 -35.5154 0 
13.5962 -32.3065 0 
13.3952 -37.6904 0 
15.9994 -33.911 0 
13.4957 -34.9985 0 
15.8989 -36.6029 0 
-31.0285 -25.2435 0 
-28.4971 -20.5095 0 
-34.1768 -20.7834 0 
-29.7628 -22.8765 0 
-31.3369 -20.6464 0 
-32.6026 -23.0134 0 
-31.0285 25.2435 0 
-34.1768 20.7834 0 
-28.4971 20.5095 0 
-32.6026 23.0134 0 
-31.3369 20.6464 0 
-29.7628 22.8765 0 
34.1768 20.7834 0 
31.0285 25.2435 0 
28.4971 20.5095 0 
32.6026 23.0134 0 
29.7628 22.8765 0 
31.3369 20.6464 0 
34.1768 -20.7834 0 
28.4971 -20.5095 0 
[...]
CELL_DATA 256
FIELD FieldData 2
material 1 256 int
2
2
2
2
2
2
2
2
2
2
2
2
2
2
2
2
2
2
2
2
2
2
2
2
2
2
2
2
2
2
2
2
2
2
3
3
3
3
3
3
3
3
3
3
3
3
3
3
3
3
3
3
3
3
3
3
3
3
3
3
3
3
3
3
3
3
3
3
3
3
3
3
3
3
3
3
3
3
3
3
1
1
1
1
1
1
1
1
1
1
1
1
1
1
1
1
1
1
1
1
1
1
1
1
1
1
1
1
1
1
1
1
1
1
1
1
1
1
1
1
1
1
1
1
1
1
1
1
1
1
1
1
1
1
1
1
1
1
1
1
1
1
1
1
1
1
1
1
1
1
1
1
1
1
1
1
1
1
1
1
1
1
1
1
1
1
1
1
1
1
1
1
1
1
1
1
1
1
1
1
1
1
1
1
1
1
1
1
1
1
1
1
1
1
1
1
1
1
1
1
1
1
1
1
1
1
1
1
1
1
1
1
1
1
1
1
1
1
1
1
1
1
1
1
1
1
1
1
1
1
1
1
1
1
1
1
1
1
1
1
1
1
1
1
1
1
1
1
1
1
1
1
1
1
1
1
elindex 1 256 int
0
1
2
3
4
5
6
7
8
9
10
11
12
13
14
15
16
17
18
19
20
21
22
23
24
25
26
27
28
29
30
31
32
33
34
35
36
37
38
39
40
41
42
43
44
45
46
47
48
49
50
51
52
53
54
55
56
57
58
59
60
61
62
63
64
65
66
67
68
69
70
71
72
73
74
75
76
77
78
79
80
81
82
83
84
85
86
87
88
89
90
91
92
93
94
95
96
97
98
99
100
101
102
103
104
105
106
107
108
109
110
111
112
113
114
115
116
117
118
119
120
121
122
123
124
125
126
127
128
129
130
131
132
133
134
135
136
137
138
139
140
141
142
143
144
145
146
147
148
149
150
151
152
153
154
155
156
157
158
159
160
161
162
163
164
165
166
167
168
169
170
171
172
173
174
175
176
177
178
179
180
181
182
183
184
185
186
187
188
189
190
191
192
193
194
195
196
197
198
199
200
201
202
203
204
205
206
207
208
209
210
211
212
213
214
215
216
217
218
219
220
221
222
223
224
225
226
227
228
229
230
231
232
233
234
235
236
237
238
239
240
241
242
243
244
245
246
247
248
249
250
251
252
253
254
255
POINT_DATA 1296
VECTORS Displacement float
0.00664183 0.0004008 0 
0.00664183 0.0004008 0 
0.00664183 0.0004008 0 
0.00635026 0.00153031 0 
0.00635026 0.00153031 0 
0.00635026 0.00153031 0 
0.00585521 0.00259111 0 
0.00585521 0.00259111 0 
0.00585521 0.00259111 0 
0.00517633 0.00353847 0 
0.00517633 0.00353847 0 
0.00517633 0.00353847 0 
0.00433151 0.00434815 0 
0.00433151 0.00434815 0 
0.00433151 0.00434815 0 
0.00335493 0.00498682 0 
0.00335493 0.00498682 0 
0.00335493 0.00498682 0 
0.00227784 0.00543578 0 
0.00227784 0.00543578 0 
0.00227784 0.00543578 0 
0.00113373 0.00567936 0 
0.00113373 0.00567936 0 
0.00113373 0.00567936 0 
-3.28666e-05 0.00570793 0 
-3.28666e-05 0.00570793 0 
-3.28666e-05 0.00570793 0 
-0.00118492 0.00552241 0 
-0.00118492 0.00552241 0 
-0.00118492 0.00552241 0 
-0.0022859 0.00512724 0 
-0.0022859 0.00512724 0 
-0.0022859 0.00512724 0 
-0.00329273 0.00453718 0 
-0.00329273 0.00453718 0 
-0.00329273 0.00453718 0 
-0.00417432 0.00377273 0 
-0.00417432 0.00377273 0 
-0.00417432 0.00377273 0 
-0.00490266 0.00285685 0 
-0.00490266 0.00285685 0 
-0.00490266 0.00285685 0 
-0.00544747 0.0018267 0 
-0.00544747 0.0018267 0 
-0.00544747 0.0018267 0 
-0.00579539 0.000710042 0 
-0.00579539 0.000710042 0 
-0.00579539 0.000710042 0 
-0.00593258 -0.000450937 0 
-0.00593258 -0.000450937 0 
-0.00593258 -0.000450937 0 
-0.00585359 -0.00161503 0 
-0.00585359 -0.00161503 0 
-0.00585359 -0.00161503 0 
-0.00556202 -0.00274453 0 
-0.00556202 -0.00274453 0 
-0.00556202 -0.00274453 0 
-0.00506698 -0.00380534 0 
-0.00506698 -0.00380534 0 
-0.00506698 -0.00380534 0 
-0.00438809 -0.00475269 0 
-0.00438809 -0.00475269 0 
-0.00438809 -0.00475269 0 
-0.00354327 -0.00556238 0 
-0.00354327 -0.00556238 0 
-0.00354327 -0.00556238 0 
-0.0025667 -0.00620104 0 
-0.0025667 -0.00620104 0 
-0.0025667 -0.00620104 0 
-0.00148961 -0.00665001 0 
-0.00148961 -0.00665001 0 
-0.00148961 -0.00665001 0 
-0.000345491 -0.00689358 0 
-0.000345491 -0.00689358 0 
-0.000345491 -0.00689358 0 
0.000821102 -0.00692216 0 
0.000821102 -0.00692216 0 
0.000821102 -0.00692216 0 
0.00197315 -0.00673664 0 
0.00197315 -0.00673664 0 
0.00197315 -0.00673664 0 
0.00307413 -0.00634146 0 
0.00307413 -0.00634146 0 
0.00307413 -0.00634146 0 
0.00408097 -0.0057514 0 
0.00408097 -0.0057514 0 
0.00408097 -0.0057514 0 
0.00496256 -0.00498695 0 
0.00496256 -0.00498695 0 
0.00496256 -0.00498695 0 
0.00569089 -0.00407107 0 
0.00569089 -0.00407107 0 
0.00569089 -0.00407107 0 
0.00623571 -0.00304092 0 
0.00623571 -0.00304092 0 
0.00623571 -0.00304092 0 
0.00658363 -0.00192427 0 
0.00658363 -0.00192427 0 
0.00658363 -0.00192427 0 
0.00672082 -0.000763289 0 
0.00672082 -0.000763289 0 
0.00672082 -0.000763289 0 
0.00256225 0.000113205 0 
0.00256225 0.000113205 0 
0.00256225 0.000113205 0 
0.00244449 0.000401727 0 
0.00244449 0.000401727 0 
0.00244449 0.000401727 0 
0.00228833 0.000672185 0 
0.00228833 0.000672185 0 
0.00228833 0.000672185 0 
0.00209606 0.000917692 0 
0.00209606 0.000917692 0 
0.00209606 0.000917692 0 
0.00187317 0.00113524 0 
0.00187317 0.00113524 0 
0.00187317 0.00113524 0 
0.00162245 0.00132074 0 
0.00162245 0.00132074 0 
0.00162245 0.00132074 0 
0.0013481 0.00147002 0 
0.0013481 0.00147002 0 
0.0013481 0.00147002 0 
0.00105634 0.00158004 0 
0.00105634 0.00158004 0 
0.00105634 0.00158004 0 
0.000752885 0.00165035 0 
0.000752885 0.00165035 0 
0.000752885 0.00165035 0 
0.000442172 0.00167895 0 
0.000442172 0.00167895 0 
0.000442172 0.00167895 0 
0.000130116 0.0016637 0 
0.000130116 0.0016637 0 
0.000130116 0.0016637 0 
-0.000176328 0.00160602 0 
-0.000176328 0.00160602 0 
-0.000176328 0.00160602 0 
-0.000472143 0.00150833 0 
-0.000472143 0.00150833 0 
-0.000472143 0.00150833 0 
-0.000752514 0.0013711 0 
-0.000752514 0.0013711 0 
-0.000752514 0.0013711 0 
-0.00101107 0.00119576 0 
-0.00101107 0.00119576 0 
-0.00101107 0.00119576 0 
-0.00124288 0.000987165 0 
-0.00124288 0.000987165 0 
-0.00124288 0.000987165 0 
-0.00144483 0.00074992 0 
-0.00144483 0.00074992 0 
-0.00144483 0.00074992 0 
-0.00161289 0.000486821 0 
-0.00161289 0.000486821 0 
-0.00161289 0.000486821 0 
-0.00174281 0.000203043 0 
-0.00174281 0.000203043 0 
-0.00174281 0.000203043 0 
-0.00183271 -9.54639e-05 0 
-0.00183271 -9.54639e-05 0 
-0.00183271 -9.54639e-05 0 
-0.00188194 -0.000402919 0 
-0.00188194 -0.000402919 0 
-0.00188194 -0.000402919 0 
-0.00188861 -0.000715757 0 
-0.00188861 -0.000715757 0 
-0.00188861 -0.000715757 0 
-0.00185206 -0.0010255 0 
-0.00185206 -0.0010255 0 
-0.00185206 -0.0010255 0 
-0.00177402 -0.00132743 0 
-0.00177402 -0.00132743 0 
-0.00177402 -0.00132743 0 
-0.00165625 -0.00161595 0 
-0.00165625 -0.00161595 0 
-0.00165625 -0.00161595 0 
-0.00150009 -0.00188641 0 
-0.00150009 -0.00188641 0 
-0.00150009 -0.00188641 0 
-0.00130783 -0.00213192 0 
-0.00130783 -0.00213192 0 
-0.00130783 -0.00213192 0 
-0.00108494 -0.00234946 0 
-0.00108494 -0.00234946 0 
-0.00108494 -0.00234946 0 
-0.000834217 -0.00253496 0 
-0.000834217 -0.00253496 0 
-0.000834217 -0.00253496 0 
-0.000559867 -0.00268425 0 
-0.000559867 -0.00268425 0 
-0.000559867 -0.00268425 0 
-0.000268105 -0.00279426 0 
-0.000268105 -0.00279426 0 
-0.000268105 -0.00279426 0 
3.53511e-05 -0.00286458 0 
3.53511e-05 -0.00286458 0 
3.53511e-05 -0.00286458 0 
0.000346064 -0.00289318 0 
0.000346064 -0.00289318 0 
0.000346064 -0.00289318 0 
0.00065812 -0.00287793 0 
0.00065812 -0.00287793 0 
0.00065812 -0.00287793 0 
0.000964563 -0.00282025 0 
0.000964563 -0.00282025 0 
0.000964563 -0.00282025 0 
0.00126038 -0.00272255 0 
0.00126038 -0.00272255 0 
0.00126038 -0.00272255 0 
0.00154075 -0.00258533 0 
0.00154075 -0.00258533 0 
0.00154075 -0.00258533 0 
0.00179931 -0.00240998 0 
0.00179931 -0.00240998 0 
0.00179931 -0.00240998 0 
0.00203112 -0.00220139 0 
0.00203112 -0.00220139 0 
0.00203112 -0.00220139 0 
0.00223307 -0.00196415 0 
0.00223307 -0.00196415 0 
0.00223307 -0.00196415 0 
0.00240112 -0.00170105 0 
0.00240112 -0.00170105 0 
0.00240112 -0.00170105 0 
0.00253105 -0.00141727 0 
0.00253105 -0.00141727 0 
0.00253105 -0.00141727 0 
0.00262095 -0.00111876 0 
0.00262095 -0.00111876 0 
0.00262095 -0.00111876 0 
0.00267017 -0.000811306 0 
0.00267017 -0.000811306 0 
0.00267017 -0.000811306 0 
0.00267684 -0.000498468 0 
0.00267684 -0.000498468 0 
0.00267684 -0.000498468 0 
0.00264029 -0.000188729 0 
0.00264029 -0.000188729 0 
0.00264029 -0.000188729 0 
-0.00168755 -0.00146961 0 
-0.00342378 -0.00203557 0 
-0.00370775 -0.00146241 0 
-0.00254871 -0.00169533 0 
-0.00361289 -0.00176233 0 
-0.00265607 -0.00149212 0 
0.00247578 0.000255388 0 
0.00421201 0.000821345 0 
0.00449598 0.000248182 0 
0.00333695 0.000481103 0 
0.00440112 0.0005481 0 
0.00344431 0.000277897 0 
0.00211793 -0.00205966 0 
0.00337394 -0.0033507 0 
0.00301204 -0.0039213 0 
0.00269519 -0.00271841 0 
0.00322995 -0.00367198 0 
0.00257793 -0.00293771 0 
-0.000395471 -0.00271922 0 
-0.00138137 -0.00443937 0 
-0.00182195 -0.00399819 0 
-0.000901366 -0.00352652 0 
-0.00163862 -0.00425476 0 
-0.00105797 -0.00337193 0 
0.00118371 0.00150499 0 
0.00216961 0.00322514 0 
0.00261018 0.00278397 0 
0.0016896 0.0023123 0 
0.00242686 0.00304054 0 
0.0018462 0.00215771 0 
-0.00132969 0.000845434 0 
-0.0025857 0.00213647 0 
-0.0022238 0.00270707 0 
-0.00190695 0.00150418 0 
-0.00244171 0.00245776 0 
-0.00178969 0.00172348 0 
-0.00168755 -0.00146961 0 
-0.00155061 -0.00174436 0 
-0.00342378 -0.00203557 0 
-0.00165625 -0.00161595 0 
-0.00244735 -0.00190397 0 
-0.00254871 -0.00169533 0 
0.00233885 0.000530133 0 
0.00421201 0.000821345 0 
0.00247578 0.000255388 0 
0.00323559 0.000689741 0 
0.00333695 0.000481103 0 
0.00244449 0.000401727 0 
0.00111252 -0.00274443 0 
0.00149678 -0.0044954 0 
0.000888577 -0.00480242 0 
0.00125705 -0.00360317 0 
0.00120594 -0.00469916 0 
0.00104221 -0.00373634 0 
-0.00032428 0.0015302 0 
-0.000708549 0.00328117 0 
-0.000100342 0.0035882 0 
-0.00046881 0.00238894 0 
-0.000417707 0.00348493 0 
-0.000253977 0.00252212 0 
-2.83754e-05 0.00160825 0 
-0.000100342 0.0035882 0 
0.000506468 0.00343331 0 
-2.26921e-05 0.00256114 0 
0.000216324 0.003561 0 
0.000191441 0.00250403 0 
0.000816611 -0.00282248 0 
0.000888577 -0.00480242 0 
0.000281768 -0.00464753 0 
0.000810928 -0.00377537 0 
0.000571912 -0.00477523 0 
0.000596794 -0.00371826 0 
0.00229889 -0.00181118 0 
0.00337394 -0.0033507 0 
0.00211793 -0.00205966 0 
0.00283682 -0.00253777 0 
0.00269519 -0.00271841 0 
0.00223307 -0.00196415 0 
-0.000395471 -0.00271922 0 
-0.00182195 -0.00399819 0 
-0.000674944 -0.00259182 0 
-0.00105797 -0.00337193 0 
-0.00124886 -0.00325184 0 
-0.000559867 -0.00268425 0 
0.00146318 0.0013776 0 
0.00118371 0.00150499 0 
0.00261018 0.00278397 0 
0.0013481 0.00147002 0 
0.0018462 0.00215771 0 
0.00203709 0.00203761 0 
-0.00132969 0.000845434 0 
-0.00151065 0.00059695 0 
-0.0025857 0.00213647 0 
-0.00144483 0.00074992 0 
-0.00204859 0.00132354 0 
-0.00190695 0.00150418 0 
-0.000102253 -0.00280655 0 
-0.000700084 -0.0044961 0 
-0.00138137 -0.00443937 0 
-0.000430179 -0.00361184 0 
-0.00105578 -0.00451782 0 
-0.000685001 -0.00361579 0 
0.000890489 0.00159233 0 
0.00148832 0.00328188 0 
0.00216961 0.00322514 0 
0.00121841 0.00239762 0 
0.00184401 0.00330359 0 
0.00147324 0.00240156 0 
-0.00111758 0.00106614 0 
-0.0022238 0.00270707 0 
-0.00162366 0.00289312 0 
-0.00161388 0.00187944 0 
-0.00193878 0.00285018 0 
-0.00139963 0.00194015 0 
0.00190582 -0.00228037 0 
0.00301204 -0.0039213 0 
0.0024119 -0.00410735 0 
0.00240211 -0.00309366 0 
0.00272702 -0.0040644 0 
0.00218787 -0.00315437 0 
0.00139611 -0.00262631 0 
0.00149678 -0.0044954 0 
0.00111252 -0.00274443 0 
0.001472 -0.00352498 0 
0.00125705 -0.00360317 0 
0.00126038 -0.00272255 0 
0.000816611 -0.00282248 0 
0.000281768 -0.00464753 0 
0.000511758 -0.00285901 0 
0.000596794 -0.00371826 0 
0.000371213 -0.0037174 0 
0.00065812 -0.00287793 0 
0.000276478 0.00164478 0 
-2.83754e-05 0.00160825 0 
0.000506468 0.00343331 0 
0.000130116 0.0016637 0 
0.000191441 0.00250403 0 
0.000417022 0.00250317 0 
-0.00032428 0.0015302 0 
-0.000607878 0.00141209 0 
-0.000708549 0.00328117 0 
-0.000472143 0.00150833 0 
-0.000683763 0.00231076 0 
-0.00046881 0.00238894 0 
0.00450698 -0.00533884 0 
0.00301204 -0.0039213 0 
0.00337394 -0.0033507 0 
0.00368624 -0.0046438 0 
0.00322995 -0.00367198 0 
0.00394054 -0.00427811 0 
0.00382261 0.00464155 0 
0.00261018 0.00278397 0 
0.00216961 0.00322514 0 
0.00321648 0.00364609 0 
0.00242686 0.00304054 0 
0.00292284 0.00394707 0 
-0.00371874 0.00412462 0 
-0.0022238 0.00270707 0 
-0.0025857 0.00213647 0 
-0.00289801 0.00342958 0 
-0.00244171 0.00245776 0 
-0.00315231 0.00306388 0 
-0.00303437 -0.00585578 0 
-0.00182195 -0.00399819 0 
-0.00138137 -0.00443937 0 
-0.00242825 -0.00486032 0 
-0.00163862 -0.00425476 0 
-0.00213461 -0.0051613 0 
-0.00117177 -0.00222832 0 
-0.00254751 -0.00334177 0 
-0.00294904 -0.00292856 0 
-0.00186354 -0.00273753 0 
-0.0027838 -0.00315992 0 
-0.00201716 -0.00259455 0 
0.00196001 0.0010141 0 
0.00333575 0.00212755 0 
0.00373727 0.00171433 0 
0.00265178 0.0015233 0 
0.00357203 0.00194569 0 
0.00280539 0.00138032 0 
-0.00176589 3.68791e-05 0 
-0.00341344 0.000829074 0 
-0.00313377 0.00131275 0 
-0.00254657 0.000448982 0 
-0.00330921 0.00109566 0 
-0.00245375 0.000627297 0 
0.00255413 -0.0012511 0 
0.00420168 -0.0020433 0 
0.00392201 -0.00252697 0 
0.0033348 -0.00166321 0 
0.00409744 -0.00230988 0 
0.00324198 -0.00184152 0 
0.000201373 -0.00285302 0 
-0.000700084 -0.0044961 0 
-0.000102253 -0.00280655 0 
-0.000206992 -0.00365913 0 
-0.000430179 -0.00361184 0 
3.53511e-05 -0.00286458 0 
0.000890489 0.00159233 0 
0.000586862 0.0016388 0 
0.00148832 0.00328188 0 
0.000752885 0.00165035 0 
0.000995228 0.0024449 0 
0.00121841 0.00239762 0 
-0.000876147 0.00125579 0 
-0.00111758 0.00106614 0 
-0.00162366 0.00289312 0 
-0.00101107 0.00119576 0 
-0.00139963 0.00194015 0 
-0.00120754 0.00205902 0 
0.00190582 -0.00228037 0 
0.0024119 -0.00410735 0 
0.00166438 -0.00247002 0 
0.00218787 -0.00315437 0 
0.00199578 -0.00327325 0 
0.00179931 -0.00240998 0 
-0.000936736 -0.00242579 0 
-0.00254751 -0.00334177 0 
-0.00117177 -0.00222832 0 
-0.00169893 -0.00289379 0 
-0.00186354 -0.00273753 0 
-0.00108494 -0.00234946 0 
-0.00165837 0.000324373 0 
-0.00176589 3.68791e-05 0 
-0.00313377 0.00131275 0 
-0.00174281 0.000203043 0 
-0.00245375 0.000627297 0 
-0.00235289 0.000828564 0 
0.00196001 0.0010141 0 
0.00172497 0.00121156 0 
0.00333575 0.00212755 0 
0.00187317 0.00113524 0 
0.00248717 0.00167956 0 
0.00265178 0.0015233 0 
0.00255413 -0.0012511 0 
0.00392201 -0.00252697 0 
0.0024466 -0.0015386 0 
0.00324198 -0.00184152 0 
0.00314112 -0.00204279 0 
0.00253105 -0.00141727 0 
-0.000708549 0.00328117 0 
-0.00105728 0.00261275 0 
-0.00172969 0.00529118 0 
-0.000910421 0.00297427 0 
-0.00136884 0.00387003 0 
-0.00112311 0.00428378 0 
0.000281768 -0.00464753 0 
-0.000904811 -0.00674015 0 
-5.71476e-05 -0.0041101 0 
-0.000215505 -0.00569144 0 
-0.000456339 -0.00534319 0 
8.48015e-05 -0.00440612 0 
0.000506468 0.00343331 0 
0.00169305 0.00552593 0 
0.000845383 0.00289588 0 
0.00100374 0.00447722 0 
0.00124457 0.00412897 0 
0.000703434 0.0031919 0 
0.00149678 -0.0044954 0 
0.00184551 -0.00382698 0 
0.00251793 -0.00650541 0 
0.00169866 -0.00418849 0 
0.00215708 -0.00508426 0 
0.00191134 -0.005498 0 
-0.00105728 0.00261275 0 
-0.00162366 0.00289312 0 
-0.00172969 0.00529118 0 
-0.00133133 0.00279003 0 
-0.00175388 0.0040384 0 
-0.00136884 0.00387003 0 
0.000845383 0.00289588 0 
0.00169305 0.00552593 0 
0.00148832 0.00328188 0 
0.00124457 0.00412897 0 
0.00166788 0.00435015 0 
0.00115771 0.00312597 0 
-5.71476e-05 -0.0041101 0 
-0.000904811 -0.00674015 0 
-0.000700084 -0.0044961 0 
-0.000456339 -0.00534319 0 
-0.000879647 -0.00556437 0 
-0.000369472 -0.00434019 0 
0.00184551 -0.00382698 0 
0.0024119 -0.00410735 0 
0.00251793 -0.00650541 0 
0.00211956 -0.00400425 0 
0.00254211 -0.00525262 0 
0.00215708 -0.00508426 0 
0.00140034 -0.00679558 0 
0.000888577 -0.00480242 0 
0.00149678 -0.0044954 0 
0.00107707 -0.00577081 0 
0.00120594 -0.00469916 0 
0.00148671 -0.00558895 0 
-0.000612103 0.00558135 0 
-0.000100342 0.0035882 0 
-0.000708549 0.00328117 0 
-0.000288834 0.00455658 0 
-0.000417707 0.00348493 0 
-0.000698479 0.00437473 0 
0.00054637 0.0056605 0 
0.000506468 0.00343331 0 
-0.000100342 0.0035882 0 
0.000564571 0.00449037 0 
0.000216324 0.003561 0 
0.000155626 0.00459615 0 
0.000241866 -0.00687472 0 
0.000281768 -0.00464753 0 
0.000888577 -0.00480242 0 
0.000223665 -0.00570459 0 
0.000571912 -0.00477523 0 
0.000632609 -0.00581038 0 
-0.00567466 -0.00218014 0 
-0.00370775 -0.00146241 0 
-0.00342378 -0.00203557 0 
-0.00467036 -0.00174691 0 
-0.00361289 -0.00176233 0 
-0.00449032 -0.00213344 0 
0.00646289 0.000965911 0 
0.00449598 0.000248182 0 
0.00421201 0.000821345 0 
0.0054586 0.000532681 0 
0.00440112 0.0005481 0 
0.00527856 0.000919218 0 
0.00257453 -3.5064e-05 0 
0.00449598 0.000248182 0 
0.00445373 -0.000378744 0 
0.00350949 5.2178e-05 0 
0.00452757 -7.15607e-05 0 
0.00348685 -0.000168926 0 
-0.00178629 -0.00117916 0 
-0.00370775 -0.00146241 0 
-0.00366549 -0.000835481 0 
-0.00272125 -0.0012664 0 
-0.00373934 -0.00114266 0 
-0.00269861 -0.0010453 0 
0.00472658 0.00392317 0 
0.00333575 0.00212755 0 
0.00267644 0.0022002 0 
0.00406275 0.0029386 0 
0.00302075 0.00219678 0 
0.00363874 0.00301179 0 
-0.00393834 -0.0051374 0 
-0.00254751 -0.00334177 0 
-0.0018882 -0.00341442 0 
-0.00327452 -0.00415283 0 
-0.00223251 -0.003411 0 
-0.00285051 -0.00422602 0 
-0.00451607 0.00328926 0 
-0.00258838 0.00144081 0 
-0.00313377 0.00131275 0 
-0.00348946 0.00231514 0 
-0.00287573 0.00140968 0 
-0.00385651 0.00221424 0 
0.0053043 -0.00450348 0 
0.00337661 -0.00265503 0 
0.00392201 -0.00252697 0 
0.00427769 -0.00352937 0 
0.00366397 -0.00262391 0 
0.00464475 -0.00342846 0 
0.00472658 0.00392317 0 
0.00267644 0.0022002 0 
0.00261018 0.00278397 0 
0.00363874 0.00301179 0 
0.00267906 0.0025038 0 
0.00358542 0.00340575 0 
-0.00451607 0.00328926 0 
-0.0025857 0.00213647 0 
-0.00258838 0.00144081 0 
-0.00346793 0.00276504 0 
-0.00262279 0.00180036 0 
-0.00348946 0.00231514 0 
-0.00393834 -0.0051374 0 
-0.0018882 -0.00341442 0 
-0.00182195 -0.00399819 0 
-0.00285051 -0.00422602 0 
-0.00189083 -0.00371803 0 
-0.00279719 -0.00461997 0 
0.0053043 -0.00450348 0 
0.00337394 -0.0033507 0 
0.00337661 -0.00265503 0 
0.00425616 -0.00397927 0 
0.00341102 -0.00301459 0 
0.00427769 -0.00352937 0 
0.00257453 -3.5064e-05 0 
0.00247578 0.000255388 0 
0.00449598 0.000248182 0 
0.00256225 0.000113205 0 
0.00344431 0.000277897 0 
0.00350949 5.2178e-05 0 
-0.00168755 -0.00146961 0 
-0.00370775 -0.00146241 0 
-0.00178629 -0.00117916 0 
-0.00265607 -0.00149212 0 
-0.00272125 -0.0012664 0 
-0.00177402 -0.00132743 0 
0.00664743 -0.000179491 0 
0.00662009 -0.00133384 0 
0.00445373 -0.000378744 0 
0.00672082 -0.000763289 0 
0.00552176 -0.000767335 0 
0.00550113 -0.000327807 0 
-0.00583186 0.000119617 0 
-0.00366549 -0.000835481 0 
-0.00585919 -0.00103473 0 
-0.00473352 -0.000446891 0 
-0.00471289 -0.000886418 0 
-0.00593258 -0.000450937 0 
-0.00200776 -0.00639813 0 
-0.00138137 -0.00443937 0 
-0.000700084 -0.0044961 0 
-0.00173451 -0.00535936 0 
-0.00105578 -0.00451782 0 
-0.00128962 -0.00542111 0 
0.00279599 0.00518391 0 
0.00216961 0.00322514 0 
0.00148832 0.00328188 0 
0.00252275 0.00414513 0 
0.00184401 0.00330359 0 
0.00207785 0.00420689 0 