# vtk DataFile Version 3.0
TPZGeoMesh VTK Visualization
ASCII

DATASET UNSTRUCTURED_GRID
POINTS 944 float
30 0 0 
29.4892 5.51249 0 
29.7446 2.75624 0 
29.4892 5.51249 0 
27.9742 10.8372 0 
28.7317 8.17487 0 
27.9742 10.8372 0 
25.5065 15.793 0 
26.7403 13.3151 0 
25.5065 15.793 0 
22.1703 20.2109 0 
23.8384 18.0019 0 
22.1703 20.2109 0 
18.079 23.9405 0 
20.1247 22.0757 0 
18.079 23.9405 0 
13.3722 26.8549 0 
15.7256 25.3977 0 
13.3722 26.8549 0 
8.20989 28.8548 0 
10.791 27.8548 0 
8.20989 28.8548 0 
2.76805 29.872 0 
5.48897 29.3634 0 
2.76805 29.872 0 
-2.76805 29.872 0 
8.65974e-15 29.872 0 
-2.76805 29.872 0 
-8.20989 28.8548 0 
-5.48897 29.3634 0 
-8.20989 28.8548 0 
-13.3722 26.8549 0 
-10.791 27.8548 0 
-13.3722 26.8549 0 
-18.079 23.9405 0 
-15.7256 25.3977 0 
-18.079 23.9405 0 
-22.1703 20.2109 0 
-20.1247 22.0757 0 
-22.1703 20.2109 0 
-25.5065 15.793 0 
-23.8384 18.0019 0 
-25.5065 15.793 0 
-27.9742 10.8372 0 
-26.7403 13.3151 0 
-27.9742 10.8372 0 
-29.4892 5.51249 0 
-28.7317 8.17487 0 
-29.4892 5.51249 0 
-30 -2.29715e-14 0 
-29.7446 2.75624 0 
-30 -2.29715e-14 0 
-29.4892 -5.51249 0 
-29.7446 -2.75624 0 
-29.4892 -5.51249 0 
-27.9742 -10.8372 0 
-28.7317 -8.17487 0 
-27.9742 -10.8372 0 
-25.5065 -15.793 0 
-26.7403 -13.3151 0 
-25.5065 -15.793 0 
-22.1703 -20.2109 0 
-23.8384 -18.0019 0 
-22.1703 -20.2109 0 
-18.079 -23.9405 0 
-20.1247 -22.0757 0 
-18.079 -23.9405 0 
-13.3722 -26.8549 0 
-15.7256 -25.3977 0 
-13.3722 -26.8549 0 
-8.20989 -28.8548 0 
-10.791 -27.8548 0 
-8.20989 -28.8548 0 
-2.76805 -29.872 0 
-5.48897 -29.3634 0 
-2.76805 -29.872 0 
2.76805 -29.872 0 
7.99361e-15 -29.872 0 
2.76805 -29.872 0 
8.20989 -28.8548 0 
5.48897 -29.3634 0 
8.20989 -28.8548 0 
13.3722 -26.8549 0 
10.791 -27.8548 0 
13.3722 -26.8549 0 
18.079 -23.9405 0 
15.7256 -25.3977 0 
18.079 -23.9405 0 
22.1703 -20.2109 0 
20.1247 -22.0757 0 
22.1703 -20.2109 0 
25.5065 -15.793 0 
23.8384 -18.0019 0 
25.5065 -15.793 0 
27.9742 -10.8372 0 
26.7403 -13.3151 0 
27.9742 -10.8372 0 
29.4892 -5.51249 0 
28.7317 -8.17487 0 
29.4892 -5.51249 0 
30 0 0 
29.7446 -2.75624 0 
40 0 0 
39.6274 5.44667 0 
39.8137 2.72333 0 
39.6274 5.44667 0 
38.5167 10.7919 0 
39.0721 8.11927 0 
38.5167 10.7919 0 
36.6885 15.936 0 
37.6026 13.364 0 
36.6885 15.936 0 
34.1768 20.7834 0 
35.4326 18.3597 0 
34.1768 20.7834 0 
31.0285 25.2435 0 
32.6026 23.0134 0 
31.0285 25.2435 0 
27.3021 29.2334 0 
29.1653 27.2385 0 
27.3021 29.2334 0 
23.0672 32.6788 0 
25.1847 30.9561 0 
23.0672 32.6788 0 
18.4026 35.5154 0 
20.7349 34.0971 0 
18.4026 35.5154 0 
13.3952 37.6904 0 
15.8989 36.6029 0 
13.3952 37.6904 0 
8.13824 39.1634 0 
10.7667 38.4269 0 
8.13824 39.1634 0 
2.7297 39.9068 0 
5.43397 39.5351 0 
2.7297 39.9068 0 
-2.7297 39.9068 0 
7.10543e-15 39.9068 0 
-2.7297 39.9068 0 
-8.13824 39.1634 0 
-5.43397 39.5351 0 
-8.13824 39.1634 0 
-13.3952 37.6904 0 
-10.7667 38.4269 0 
-13.3952 37.6904 0 
-18.4026 35.5154 0 
-15.8989 36.6029 0 
-18.4026 35.5154 0 
-23.0672 32.6788 0 
-20.7349 34.0971 0 
-23.0672 32.6788 0 
-27.3021 29.2334 0 
-25.1847 30.9561 0 
-27.3021 29.2334 0 
-31.0285 25.2435 0 
-29.1653 27.2385 0 
-31.0285 25.2435 0 
-34.1768 20.7834 0 
-32.6026 23.0134 0 
-34.1768 20.7834 0 
-36.6885 15.936 0 
-35.4326 18.3597 0 
-36.6885 15.936 0 
-38.5167 10.7919 0 
-37.6026 13.364 0 
-38.5167 10.7919 0 
-39.6274 5.44667 0 
-39.0721 8.11927 0 
-39.6274 5.44667 0 
-40 4.89843e-15 0 
-39.8137 2.72333 0 
-40 4.89843e-15 0 
-39.6274 -5.44667 0 
-39.8137 -2.72333 0 
-39.6274 -5.44667 0 
-38.5167 -10.7919 0 
-39.0721 -8.11927 0 
-38.5167 -10.7919 0 
-36.6885 -15.936 0 
-37.6026 -13.364 0 
-36.6885 -15.936 0 
-34.1768 -20.7834 0 
-35.4326 -18.3597 0 
-34.1768 -20.7834 0 
-31.0285 -25.2435 0 
-32.6026 -23.0134 0 
-31.0285 -25.2435 0 
-27.3021 -29.2334 0 
-29.1653 -27.2385 0 
-27.3021 -29.2334 0 
-23.0672 -32.6788 0 
-25.1847 -30.9561 0 
-23.0672 -32.6788 0 
-18.4026 -35.5154 0 
-20.7349 -34.0971 0 
-18.4026 -35.5154 0 
-13.3952 -37.6904 0 
-15.8989 -36.6029 0 
-13.3952 -37.6904 0 
-8.13824 -39.1634 0 
-10.7667 -38.4269 0 
-8.13824 -39.1634 0 
-2.7297 -39.9068 0 
-5.43397 -39.5351 0 
-2.7297 -39.9068 0 
2.7297 -39.9068 0 
-2.5091e-14 -39.9068 0 
2.7297 -39.9068 0 
8.13824 -39.1634 0 
5.43397 -39.5351 0 
8.13824 -39.1634 0 
13.3952 -37.6904 0 
10.7667 -38.4269 0 
13.3952 -37.6904 0 
18.4026 -35.5154 0 
15.8989 -36.6029 0 
18.4026 -35.5154 0 
23.0672 -32.6788 0 
20.7349 -34.0971 0 
23.0672 -32.6788 0 
27.3021 -29.2334 0 
25.1847 -30.9561 0 
27.3021 -29.2334 0 
31.0285 -25.2435 0 
29.1653 -27.2385 0 
31.0285 -25.2435 0 
34.1768 -20.7834 0 
32.6026 -23.0134 0 
34.1768 -20.7834 0 
36.6885 -15.936 0 
35.4326 -18.3597 0 
36.6885 -15.936 0 
38.5167 -10.7919 0 
37.6026 -13.364 0 
38.5167 -10.7919 0 
39.6274 -5.44667 0 
39.0721 -8.11927 0 
39.6274 -5.44667 0 
40 0 0 
39.8137 -2.72333 0 
-34.3209 -5.20741 0 
-39.6274 -5.44667 0 
-38.5167 -10.7919 0 
-33.8271 -10.3365 0 
-36.9741 -5.32704 0 
-39.0721 -8.11927 0 
-36.1719 -10.5642 0 
-34.074 -7.77197 0 
34.3209 5.20741 0 
39.6274 5.44667 0 
38.5167 10.7919 0 
33.8271 10.3365 0 
36.9741 5.32704 0 
39.0721 8.11927 0 
36.1719 10.5642 0 
34.074 7.77197 0 
0.00720099 -34.6208 0 
-5.35957 -34.2022 0 
-8.13824 -39.1634 0 
-2.7297 -39.9068 0 
-2.67619 -34.4115 0 
-6.74891 -36.6828 0 
-5.43397 -39.5351 0 
-1.36125 -37.2638 0 
-0.00720099 34.6208 0 
5.35957 34.2022 0 
8.13824 39.1634 0 
2.7297 39.9068 0 
2.67619 34.4115 0 
6.74891 36.6828 0 
5.43397 39.5351 0 
1.36125 37.2638 0 
23.0672 32.6788 0 
18.5027 29.4663 0 
18.079 23.9405 0 
22.2737 26.7478 0 
20.785 31.0725 0 
18.2909 26.7034 0 
20.1764 25.3442 0 
22.6705 29.7133 0 
-23.0672 -32.6788 0 
-18.5027 -29.4663 0 
-18.079 -23.9405 0 
-22.2737 -26.7478 0 
-20.785 -31.0725 0 
-18.2909 -26.7034 0 
-20.1764 -25.3442 0 
-22.6705 -29.7133 0 
-16.2596 30.6761 0 
-11.9438 33.2269 0 
-13.3952 37.6904 0 
-18.4026 35.5154 0 
-14.1017 31.9515 0 
-12.6695 35.4587 0 
-15.8989 36.6029 0 
-17.3311 33.0958 0 
16.2596 -30.6761 0 
11.9438 -33.2269 0 
13.3952 -37.6904 0 
18.4026 -35.5154 0 
14.1017 -31.9515 0 
12.6695 -35.4587 0 
15.8989 -36.6029 0 
17.3311 -33.0958 0 
-30.9674 -16.2574 0 
-34.1768 -20.7834 0 
-31.0285 -25.2435 0 
-28.0825 -20.3596 0 
-32.5721 -18.5204 0 
-32.6026 -23.0134 0 
-29.5555 -22.8016 0 
-29.525 -18.3085 0 
-31.26 16.5832 0 
-28.0938 20.4326 0 
-31.0285 25.2435 0 
-34.1768 20.7834 0 
-29.6769 18.5079 0 
-29.5611 22.838 0 
-32.6026 23.0134 0 
-32.7184 18.6833 0 
30.9674 16.2574 0 
34.1768 20.7834 0 
31.0285 25.2435 0 
28.0825 20.3596 0 
32.5721 18.5204 0 
32.6026 23.0134 0 
29.5555 22.8016 0 
29.525 18.3085 0 
31.26 -16.5832 0 
28.0938 -20.4326 0 
31.0285 -25.2435 0 
34.1768 -20.7834 0 
29.6769 -18.5079 0 
29.5611 -22.838 0 
32.6026 -23.0134 0 
32.7184 -18.6833 0 
-5.32044 34.6411 0 
-8.44161 35.5648 0 
-11.9438 33.2269 0 
-8.20989 28.8548 0 
-6.88102 35.103 0 
-10.1927 34.3959 0 
-10.0768 31.0408 0 
-6.76517 31.7479 0 
5.32044 -34.6411 0 
8.44161 -35.5648 0 
11.9438 -33.2269 0 
8.20989 -28.8548 0 
6.88102 -35.103 0 
10.1927 -34.3959 0 
10.0768 -31.0408 0 
6.76517 -31.7479 0 
34.664 -0.165185 0 
40 0 0 
39.6274 5.44667 0 
34.3209 5.20741 0 
37.332 -0.0825923 0 
39.8137 2.72333 0 
36.9741 5.32704 0 
34.4924 2.52111 0 
-34.664 0.165185 0 
-40 4.89843e-15 0 
-39.6274 -5.44667 0 
-34.3209 -5.20741 0 
-37.332 0.0825923 0 
-39.8137 -2.72333 0 
-36.9741 -5.32704 0 
-34.4924 -2.52111 0 
30 0 0 
29.4892 -5.51249 0 
34.2936 -5.34475 0 
34.664 -0.165185 0 
29.7446 -2.75624 0 
31.8914 -5.42862 0 
34.4788 -2.75496 0 
32.332 -0.0825923 0 
-30 -2.29715e-14 0 
-29.4892 5.51249 0 
-34.2936 5.34475 0 
-34.664 0.165185 0 
-29.7446 2.75624 0 
-31.8914 5.42862 0 
-34.4788 2.75496 0 
-32.332 0.0825923 0 
20.5308 -27.9114 0 
18.079 -23.9405 0 
13.3722 -26.8549 0 
16.2596 -30.6761 0 
19.3049 -25.9259 0 
15.7256 -25.3977 0 
14.8159 -28.7655 0 
18.3952 -29.2937 0 
15.3196 31.1414 0 
13.3722 26.8549 0 
18.079 23.9405 0 
18.5027 29.4663 0 
14.3459 28.9982 0 
15.7256 25.3977 0 
18.2909 26.7034 0 
16.9111 30.3039 0 
-15.3196 -31.1414 0 
-13.3722 -26.8549 0 
-18.079 -23.9405 0 
-18.5027 -29.4663 0 
-14.3459 -28.9982 0 
-15.7256 -25.3977 0 
-18.2909 -26.7034 0 
-16.9111 -30.3039 0 
-20.5308 27.9114 0 
-18.079 23.9405 0 
-13.3722 26.8549 0 
-16.2596 30.6761 0 
-19.3049 25.9259 0 
-15.7256 25.3977 0 
-14.8159 28.7655 0 
-18.3952 29.2937 0 
5.32044 -34.6411 0 
0.00720099 -34.6208 0 
-2.7297 -39.9068 0 
2.7297 -39.9068 0 
2.66382 -34.6309 0 
-1.36125 -37.2638 0 
-2.5091e-14 -39.9068 0 
4.02507 -37.2739 0 
-5.32044 34.6411 0 
-0.00720099 34.6208 0 
2.7297 39.9068 0 
-2.7297 39.9068 0 
-2.66382 34.6309 0 
1.36125 37.2638 0 
7.10543e-15 39.9068 0 
-4.02507 37.2739 0 
-27.9742 -10.8372 0 
-30.9674 -16.2574 0 
-28.0825 -20.3596 0 
-25.5065 -15.793 0 
-29.4708 -13.5473 0 
-29.525 -18.3085 0 
-26.7945 -18.0763 0 
-26.7403 -13.3151 0 
27.9742 10.8372 0 
30.9674 16.2574 0 
28.0825 20.3596 0 
25.5065 15.793 0 
29.4708 13.5473 0 
29.525 18.3085 0 
26.7945 18.0763 0 
26.7403 13.3151 0 
27.9742 -10.8372 0 
25.5065 -15.793 0 
28.0938 -20.4326 0 
31.26 -16.5832 0 
26.7403 -13.3151 0 
26.8001 -18.1128 0 
29.6769 -18.5079 0 
29.6171 -13.7102 0 
-27.9742 10.8372 0 
-25.5065 15.793 0 
-28.0938 20.4326 0 
-31.26 16.5832 0 
-26.7403 13.3151 0 
-26.8001 18.1128 0 
-29.6769 18.5079 0 
-29.6171 13.7102 0 
5.35957 34.2022 0 
-0.00720099 34.6208 0 
-2.76805 29.872 0 
2.76805 29.872 0 
2.67619 34.4115 0 
-1.38763 32.2464 0 
8.65974e-15 29.872 0 
4.06381 32.0371 0 
-5.35957 -34.2022 0 
0.00720099 -34.6208 0 
2.76805 -29.872 0 
-2.76805 -29.872 0 
[...]
CELL_DATA 168
FIELD FieldData 2
material 1 168 int
2
2
2
2
2
2
2
2
2
2
2
2
2
2
2
2
2
2
2
2
2
2
2
2
2
2
2
2
2
2
2
2
2
2
3
3
3
3
3
3
3
3
3
3
3
3
3
3
3
3
3
3
3
3
3
3
3
3
3
3
3
3
3
3
3
3
3
3
3
3
3
3
3
3
3
3
3
3
3
3
1
1
1
1
1
1
1
1
1
1
1
1
1
1
1
1
1
1
1
1
1
1
1
1
1
1
1
1
1
1
1
1
1
1
1
1
1
1
1
1
1
1
1
1
1
1
1
1
1
1
1
1
1
1
1
1
1
1
1
1
1
1
1
1
1
1
1
1
1
1
1
1
1
1
1
1
1
1
1
1
1
1
1
1
1
1
1
1
elindex 1 168 int
0
1
2
3
4
5
6
7
8
9
10
11
12
13
14
15
16
17
18
19
20
21
22
23
24
25
26
27
28
29
30
31
32
33
34
35
36
37
38
39
40
41
42
43
44
45
46
47
48
49
50
51
52
53
54
55
56
57
58
59
60
61
62
63
64
65
66
67
68
69
70
71
72
73
74
75
76
77
78
79
80
81
82
83
84
85
86
87
88
89
90
91
92
93
94
95
96
97
98
99
100
101
102
103
104
105
106
107
108
109
110
111
112
113
114
115
116
117
118
119
120
121
122
123
124
125
126
127
128
129
130
131
132
133
134
135
136
137
138
139
140
141
142
143
144
145
146
147
148
149
150
151
152
153
154
155
156
157
158
159
160
161
162
163
164
165
166
167
POINT_DATA 944
VECTORS Displacement float
0.00580203 0.000657593 0 
0.00591558 8.82708e-05 0 
0.00586452 -0.000496456 0 
0.0055269 0.00177896 0 
0.00574624 0.00124231 0 
0.00580203 0.000657593 0 
0.0050539 0.00283408 0 
0.00536658 0.00234475 0 
0.0055269 0.00177896 0 
0.00439444 0.00378309 0 
0.00479138 0.00335889 0 
0.0050539 0.00283408 0 
0.00357054 0.00459312 0 
0.00404 0.00425141 0 
0.00439444 0.00378309 0 
0.00261478 0.00523987 0 
0.00313828 0.00498878 0 
0.00357054 0.00459312 0 
0.00155405 0.00569865 0 
0.00211402 0.00554673 0 
0.00261478 0.00523987 0 
0.000427273 0.00595355 0 
0.00100562 0.00590814 0 
0.00155405 0.00569865 0 
-0.000727364 0.00599647 0 
-0.000150261 0.00605943 0 
0.000427273 0.00595355 0 
-0.00187085 0.00582679 0 
-0.00131446 0.00599555 0 
-0.000727364 0.00599647 0 
-0.00296376 0.00545349 0 
-0.00244738 0.00571972 0 
-0.00187085 0.00582679 0 
-0.00396915 0.00488371 0 
-0.00351012 0.00523903 0 
-0.00296376 0.00545349 0 
-0.00485194 0.00413836 0 
-0.00446657 0.00457212 0 
-0.00396915 0.00488371 0 
-0.00558269 0.00324297 0 
-0.00528428 0.00374082 0 
-0.00485194 0.00413836 0 
-0.0061347 0.0022287 0 
-0.00593559 0.00277391 0 
-0.00558269 0.00324297 0 
-0.00649658 0.00113092 0 
-0.00639783 0.00170325 0 
-0.0061347 0.0022287 0 
-0.00664828 -1.47906e-05 0 
-0.00665487 0.000565659 0 
-0.00649658 0.00113092 0 
-0.00658579 -0.00116884 0 
-0.00669934 -0.000599517 0 
-0.00664828 -1.47906e-05 0 
-0.00631067 -0.00229021 0 
-0.00653 -0.00175356 0 
-0.00658579 -0.00116884 0 
-0.00583766 -0.00334533 0 
-0.00615034 -0.00285599 0 
-0.00631067 -0.00229021 0 
-0.0051782 -0.00429434 0 
-0.00557514 -0.00387013 0 
-0.00583766 -0.00334533 0 
-0.0043543 -0.00510437 0 
-0.00482376 -0.00476265 0 
-0.0051782 -0.00429434 0 
-0.00339854 -0.00575111 0 
-0.00392204 -0.00550002 0 
-0.0043543 -0.00510437 0 
-0.00233781 -0.0062099 0 
-0.00289778 -0.00605797 0 
-0.00339854 -0.00575111 0 
-0.00121103 -0.00646479 0 
-0.00178938 -0.00641939 0 
-0.00233781 -0.0062099 0 
-5.63959e-05 -0.00650771 0 
-0.0006335 -0.00657067 0 
-0.00121103 -0.00646479 0 
0.00108709 -0.00633804 0 
0.000530703 -0.00650679 0 
-5.63959e-05 -0.00650771 0 
0.00218 -0.00596474 0 
0.00166362 -0.00623096 0 
0.00108709 -0.00633804 0 
0.00318539 -0.00539495 0 
0.00272636 -0.00575027 0 
0.00218 -0.00596474 0 
0.00406818 -0.0046496 0 
0.00368281 -0.00508337 0 
0.00318539 -0.00539495 0 
0.00479893 -0.00375422 0 
0.00450052 -0.00425206 0 
0.00406818 -0.0046496 0 
0.00535093 -0.00273994 0 
0.00515183 -0.00328515 0 
0.00479893 -0.00375422 0 
0.00571282 -0.00164216 0 
0.00561407 -0.00221449 0 
0.00535093 -0.00273994 0 
0.00586452 -0.000496456 0 
0.00587111 -0.00107691 0 
0.00571282 -0.00164216 0 
0.00178565 -0.000577311 0 
0.00183826 -0.000424567 0 
0.00180931 -0.000277319 0 
0.00180931 -0.000277319 0 
0.0018405 -0.000119365 0 
0.00179206 2.2921e-05 0 
0.00179206 2.2921e-05 0 
0.00180109 0.000183107 0 
0.00173517 0.000317845 0 
0.00173517 0.000317845 0 
0.0017208 0.000478492 0 
0.00163763 0.000601447 0 
0.00163763 0.000601447 0 
0.00160243 0.000759326 0 
0.00150284 0.000870229 0 
0.00150284 0.000870229 0 
0.00144666 0.00102236 0 
0.00133193 0.00111894 0 
0.00133193 0.00111894 0 
0.00125483 0.00126073 0 
0.00113 0.00134132 0 
0.00113 0.00134132 0 
0.00103447 0.00147063 0 
0.000897896 0.00153342 0 
0.000897896 0.00153342 0 
0.000786016 0.00164996 0 
0.000641584 0.00169207 0 
0.000641584 0.00169207 0 
0.000515488 0.00179201 0 
0.000366649 0.00181426 0 
0.000366649 0.00181426 0 
0.000228258 0.00189573 0 
7.77336e-05 0.00189782 0 
7.77336e-05 0.00189782 0 
-7.02402e-05 0.00195915 0 
-0.000219633 0.00194138 0 
-0.000219633 0.00194138 0 
-0.000373981 0.00198173 0 
-0.00051953 0.0019445 0 
-0.00051953 0.0019445 0 
-0.000679565 0.00196313 0 
-0.000817251 0.00190531 0 
-0.000817251 0.00190531 0 
-0.000978612 0.00190354 0 
-0.00110764 0.0018272 0 
-0.00110764 0.0018272 0 
-0.00126712 0.00180345 0 
-0.00138471 0.00171003 0 
-0.00138471 0.00171003 0 
-0.00153937 0.00166478 0 
-0.00164325 0.00155606 0 
-0.00164325 0.00155606 0 
-0.00178991 0.00149018 0 
-0.0018783 0.00136839 0 
-0.0018783 0.00136839 0 
-0.00201401 0.00128315 0 
-0.00208553 0.00115082 0 
-0.00208553 0.00115082 0 
-0.00220813 0.00104793 0 
-0.0022615 0.000907526 0 
-0.0022615 0.000907526 0 
-0.00236899 0.000787448 0 
-0.00240127 0.000641982 0 
-0.00240127 0.000641982 0 
-0.00249274 0.000509001 0 
-0.00250512 0.000360033 0 
-0.00250512 0.000360033 0 
-0.00257792 0.000215616 0 
-0.00256941 6.6065e-05 0 
-0.00256941 6.6065e-05 0 
-0.00262202 -8.6679e-05 0 
-0.00259307 -0.000233927 0 
-0.00259307 -0.000233927 0 
-0.00262426 -0.000391881 0 
-0.00257583 -0.000534167 0 
-0.00257583 -0.000534167 0 
-0.00258485 -0.000694354 0 
-0.00251893 -0.000829092 0 
-0.00251893 -0.000829092 0 
-0.00250456 -0.000989738 0 
-0.00242139 -0.00111269 0 
-0.00242139 -0.00111269 0 
-0.00238619 -0.00127057 0 
-0.0022866 -0.00138148 0 
-0.0022866 -0.00138148 0 
-0.00223042 -0.00153361 0 
-0.00211569 -0.00163018 0 
-0.00211569 -0.00163018 0 
-0.00203859 -0.00177197 0 
-0.00191376 -0.00185257 0 
-0.00191376 -0.00185257 0 
-0.00181823 -0.00198188 0 
-0.00168166 -0.00204467 0 
-0.00168166 -0.00204467 0 
-0.00156978 -0.0021612 0 
-0.00142534 -0.00220332 0 
-0.00142534 -0.00220332 0 
-0.00129925 -0.00230326 0 
-0.00115041 -0.0023255 0 
-0.00115041 -0.0023255 0 
-0.00101202 -0.00240697 0 
-0.000861494 -0.00240906 0 
-0.000861494 -0.00240906 0 
-0.00071352 -0.0024704 0 
-0.000564127 -0.00245263 0 
-0.000564127 -0.00245263 0 
-0.000409779 -0.00249298 0 
-0.00026423 -0.00245575 0 
-0.00026423 -0.00245575 0 
-0.000104195 -0.00247437 0 
3.34906e-05 -0.00241656 0 
3.34906e-05 -0.00241656 0 
0.000194852 -0.00241479 0 
0.000323879 -0.00233845 0 
0.000323879 -0.00233845 0 
0.000483364 -0.0023147 0 
0.000600951 -0.00222127 0 
0.000600951 -0.00222127 0 
0.00075561 -0.00217603 0 
0.000859489 -0.0020673 0 
0.000859489 -0.0020673 0 
0.00100615 -0.00200142 0 
0.00109454 -0.00187964 0 
0.00109454 -0.00187964 0 
0.00123025 -0.00179439 0 
0.00130177 -0.00166206 0 
0.00130177 -0.00166206 0 
0.00142437 -0.00155918 0 
0.00147774 -0.00141877 0 
0.00147774 -0.00141877 0 
0.00158523 -0.00129869 0 
0.00161751 -0.00115323 0 
0.00161751 -0.00115323 0 
0.00170898 -0.00102025 0 
0.00172136 -0.000871279 0 
0.00172136 -0.000871279 0 
0.00179416 -0.000726862 0 
0.00178565 -0.000577311 0 
-0.00452995 -0.000601541 0 
-0.00259307 -0.000233927 0 
-0.00257583 -0.000534167 0 
-0.00418501 -0.00111863 0 
-0.00352191 -0.000403615 0 
-0.00262426 -0.000391881 0 
-0.00335537 -0.000806396 0 
-0.00440133 -0.000882183 0 
0.00374619 9.02947e-05 0 
0.00180931 -0.000277319 0 
0.00179206 2.2921e-05 0 
0.00340125 0.000607386 0 
0.00273815 -0.000107632 0 
0.0018405 -0.000119365 0 
0.00257161 0.000295149 0 
0.00361757 0.000370937 0 
-0.000670523 -0.00443856 0 
-0.00131532 -0.00434605 0 
-0.00115041 -0.0023255 0 
-0.000861494 -0.00240906 0 
-0.000997361 -0.00444763 0 
-0.00125626 -0.00329262 0 
-0.00101202 -0.00240697 0 
-0.000807074 -0.00338902 0 
-0.000113238 0.00392731 0 
0.00053156 0.0038348 0 
0.000366649 0.00181426 0 
7.77336e-05 0.00189782 0 
0.000213601 0.00393638 0 
0.000472498 0.00278137 0 
0.000228258 0.00189573 0 
2.33135e-05 0.00287777 0 
0.00113 0.00134132 0 
0.00203197 0.0030803 0 
0.00357054 0.00459312 0 
0.00245272 0.00272189 0 
0.00158844 0.00216393 0 
0.00272999 0.00384118 0 
0.00300787 0.00359699 0 
0.0017362 0.00203923 0 
-0.00191376 -0.00185257 0 
-0.00281573 -0.00359154 0 
-0.0043543 -0.00510437 0 
-0.00323648 -0.00323313 0 
-0.0023722 -0.00267517 0 
-0.00351375 -0.00435243 0 
-0.00379163 -0.00410824 0 
-0.00251996 -0.00255048 0 
-0.00208396 0.00353517 0 
-0.00144402 0.00351626 0 
-0.000817251 0.00190531 0 
-0.00110764 0.0018272 0 
-0.00177289 0.00357141 0 
-0.00111798 0.00268133 0 
-0.000978612 0.00190354 0 
-0.00157142 0.00264729 0 
0.0013002 -0.00404642 0 
0.000660261 -0.00402751 0 
3.34906e-05 -0.00241656 0 
0.000323879 -0.00233845 0 
0.000989129 -0.00408265 0 
0.000334217 -0.00319257 0 
0.000194852 -0.00241479 0 
0.000787659 -0.00315854 0 
-0.00409801 -0.00188372 0 
-0.00242139 -0.00111269 0 
-0.0022866 -0.00138148 0 
-0.00391987 -0.00246962 0 
-0.00321706 -0.0015154 0 
-0.00238619 -0.00127057 0 
-0.00305441 -0.0019308 0 
-0.00405143 -0.00219714 0 
-0.0036801 0.00181029 0 
-0.00356941 0.00240186 0 
-0.0018783 0.00136839 0 
-0.00208553 0.00115082 0 
-0.00366812 0.00212003 0 
-0.0026764 0.00188956 0 
-0.00201401 0.00128315 0 
-0.00284744 0.0014956 0 
0.00331425 0.00137247 0 
0.00163763 0.000601447 0 
0.00150284 0.000870229 0 
0.0031361 0.00195837 0 
0.0024333 0.00100415 0 
0.00160243 0.000759326 0 
0.00227064 0.00141956 0 
0.00326767 0.0016859 0 
0.00289634 -0.00232154 0 
0.00278565 -0.00291311 0 
0.00109454 -0.00187964 0 
0.00130177 -0.00166206 0 
0.00288436 -0.00263128 0 
0.00189264 -0.00240081 0 
0.00123025 -0.00179439 0 
0.00206368 -0.00200685 0 
-0.000721701 0.00375061 0 
-0.000895445 0.00314255 0 
-0.00144402 0.00351626 0 
-0.00187085 0.00582679 0 
-0.000825377 0.00345329 0 
-0.00116008 0.00335647 0 
-0.00169315 0.00460321 0 
-0.00119716 0.0047872 0 
-6.20594e-05 -0.00426186 0 
0.000111684 -0.0036538 0 
0.000660261 -0.00402751 0 
0.00108709 -0.00633804 0 
4.16163e-05 -0.00396454 0 
0.000376323 -0.00386772 0 
0.00090939 -0.00511446 0 
0.0004134 -0.00529845 0 
0.00376956 -0.000553977 0 
0.00178565 -0.000577311 0 
0.00180931 -0.000277319 0 
0.00374619 9.02947e-05 0 
0.0027351 -0.00056259 0 
0.00183826 -0.000424567 0 
0.00273815 -0.000107632 0 
0.00381304 -0.000226812 0 
-0.00455332 4.27305e-05 0 
-0.00256941 6.6065e-05 0 
-0.00259307 -0.000233927 0 
-0.00452995 -0.000601541 0 
-0.00351886 5.13436e-05 0 
-0.00262202 -8.6679e-05 0 
-0.00352191 -0.000403615 0 
-0.0045968 -0.000284434 0 
0.00586452 -0.000496456 0 
0.00571282 -0.00164216 0 
0.00366072 -0.00116967 0 
0.00376956 -0.000553977 0 
0.00587111 -0.00107691 0 
0.00463899 -0.00137526 0 
0.00376651 -0.000866751 0 
0.00476349 -0.000528474 0 
-0.00664828 -1.47906e-05 0 
-0.00649658 0.00113092 0 
-0.00444448 0.000658427 0 
-0.00455332 4.27305e-05 0 
-0.00665487 0.000565659 0 
-0.00542275 0.000864015 0 
-0.00455027 0.000355505 0 
-0.00554725 1.72273e-05 0 
0.00185369 -0.00378027 0 
0.00318539 -0.00539495 0 
0.00218 -0.00596474 0 
0.0013002 -0.00404642 0 
0.00248071 -0.00455055 0 
0.00272636 -0.00575027 0 
0.00173245 -0.00494972 0 
0.00160209 -0.00395602 0 
0.00169018 0.00334511 0 
0.00261478 0.00523987 0 
0.00357054 0.00459312 0 
0.00203197 0.0030803 0 
0.00212489 0.00424493 0 
0.00313828 0.00498878 0 
0.00272999 0.00384118 0 
0.00187423 0.00323345 0 
-0.00247394 -0.00385636 0 
-0.00339854 -0.00575111 0 
-0.0043543 -0.00510437 0 
-0.00281573 -0.00359154 0 
-0.00290865 -0.00475618 0 
-0.00392204 -0.00550002 0 
-0.00351375 -0.00435243 0 
-0.00265799 -0.00374469 0 
-0.00263745 0.00326902 0 
-0.00396915 0.00488371 0 
-0.00296376 0.00545349 0 
-0.00208396 0.00353517 0 
-0.00326447 0.00403931 0 
-0.00351012 0.00523903 0 
-0.00251621 0.00443848 0 
-0.00238585 0.00344477 0 
-6.20594e-05 -0.00426186 0 
-0.000670523 -0.00443856 0 
-0.000861494 -0.00240906 0 
-0.000564127 -0.00245263 0 
-0.000354373 -0.00440163 0 
-0.000807074 -0.00338902 0 
-0.00071352 -0.0024704 0 
-0.000362514 -0.00334154 0 
-0.000721701 0.00375061 0 
-0.000113238 0.00392731 0 
7.77336e-05 0.00189782 0 
-0.000219633 0.00194138 0 
-0.000429387 0.00389038 0 
2.33135e-05 0.00287777 0 
-7.02402e-05 0.00195915 0 
-0.000421246 0.00283029 0 
-0.00631067 -0.00229021 0 
-0.00409801 -0.00188372 0 
-0.00391987 -0.00246962 0 
-0.00583766 -0.00334533 0 
-0.00514363 -0.00215503 0 
-0.00405143 -0.00219714 0 
-0.00481591 -0.00292848 0 
-0.00615034 -0.00285599 0 
0.0055269 0.00177896 0 
0.00331425 0.00137247 0 
0.0031361 0.00195837 0 
0.0050539 0.00283408 0 
0.00435987 0.00164378 0 
0.00326767 0.0016859 0 
0.00403215 0.00241724 0 
0.00536658 0.00234475 0 
0.00535093 -0.00273994 0 
0.00479893 -0.00375422 0 
0.00278565 -0.00291311 0 
0.00289634 -0.00232154 0 
0.00515183 -0.00328515 0 
0.00372797 -0.00335563 0 
0.00288436 -0.00263128 0 
0.00405355 -0.00260434 0 
-0.0061347 0.0022287 0 
-0.00558269 0.00324297 0 
-0.00356941 0.00240186 0 
-0.0036801 0.00181029 0 
-0.00593559 0.00277391 0 
-0.00451173 0.00284438 0 
-0.00366812 0.00212003 0 
-0.00483731 0.00209309 0 
0.00053156 0.0038348 0 
-0.000113238 0.00392731 0 
-0.000727364 0.00599647 0 
0.000427273 0.00595355 0 
0.000213601 0.00393638 0 
-0.00035362 0.00493392 0 
-0.000150261 0.00605943 0 
0.000518576 0.00484647 0 
-0.00131532 -0.00434605 0 
-0.000670523 -0.00443856 0 
-5.63959e-05 -0.00650771 0 
-0.00121103 -0.00646479 0 
-0.000997361 -0.00444763 0 
-0.00043014 -0.00544517 0 
-0.0006335 -0.00657067 0 
-0.00130234 -0.00535771 0 
-0.00247394 -0.00385636 0 
-0.00281573 -0.00359154 0 
-0.00191376 -0.00185257 0 
-0.00168166 -0.00204467 0 
-0.00265799 -0.00374469 0 
-0.0023722 -0.00267517 0 
-0.00181823 -0.00198188 0 
-0.00207078 -0.00290851 0 
0.00169018 0.00334511 0 
0.00203197 0.0030803 0 
0.00113 0.00134132 0 
0.000897896 0.00153342 0 
0.00187423 0.00323345 0 
0.00158844 0.00216393 0 
0.00103447 0.00147063 0 
0.00128702 0.00239727 0 
-0.00263745 0.00326902 0 
-0.00208396 0.00353517 0 
-0.00110764 0.0018272 0 
-0.00138471 0.00171003 0 
-0.00238585 0.00344477 0 
-0.00157142 0.00264729 0 
-0.00126712 0.00180345 0 
-0.00197668 0.00246253 0 
0.00185369 -0.00378027 0 
0.0013002 -0.00404642 0 
0.000323879 -0.00233845 0 
0.000600951 -0.00222127 0 
0.00160209 -0.00395602 0 
0.000787659 -0.00315854 0 
0.000483364 -0.0023147 0 
0.00119292 -0.00297378 0 
0.00580203 0.000657593 0 
0.00586452 -0.000496456 0 
0.00376956 -0.000553977 0 
0.00374619 9.02947e-05 0 
0.00591558 8.82708e-05 0 
0.00476349 -0.000528474 0 
0.00381304 -0.000226812 0 
0.00472735 0.000340555 0 
-0.00658579 -0.00116884 0 
-0.00664828 -1.47906e-05 0 
-0.00455332 4.27305e-05 0 
-0.00452995 -0.000601541 0 
-0.00669934 -0.000599517 0 
-0.00554725 1.72273e-05 0 
-0.0045968 -0.000284434 0 
-0.00551111 -0.000851801 0 
0.00289634 -0.00232154 0 
0.00263731 -0.00184323 0 
0.00337827 -0.00166572 0 
0.00535093 -0.00273994 0 
0.00278594 -0.00207664 0 
0.00301989 -0.00178112 0 
0.00434472 -0.00212871 0 
0.00405355 -0.00260434 0 
-0.00409801 -0.00188372 0 
-0.00631067 -0.00229021 0 
-0.00418501 -0.00111863 0 
-0.00365363 -0.00130293 0 
-0.00514363 -0.00215503 0 
-0.00521663 -0.00163069 0 
-0.00393123 -0.00123069 0 
-0.00389362 -0.00158238 0 
0.00331425 0.00137247 0 
0.0055269 0.00177896 0 
0.00340125 0.000607386 0 
0.00286987 0.000791681 0 
0.00435987 0.00164378 0 
0.00443287 0.00111944 0 
0.00314747 0.000719442 0 
0.00310986 0.00107114 0 
-0.0036801 0.00181029 0 
-0.00342107 0.00133198 0 
-0.00416203 0.00115447 0 
-0.0061347 0.0022287 0 
-0.00356971 0.00156539 0 
-0.00380365 0.00126987 0 
-0.00512848 0.00161746 0 
-0.00483731 0.00209309 0 
-0.00355966 -0.0029592 0 
-0.0051782 -0.00429434 0 
-0.00583766 -0.00334533 0 
-0.00391987 -0.00246962 0 
-0.00431463 -0.00360963 0 
-0.00557514 -0.00387013 0 
-0.00481591 -0.00292848 0 
-0.00377697 -0.00274624 0 
0.00237123 -0.00340048 0 
0.00278565 -0.00291311 0 
0.00479893 -0.00375422 0 
0.00406818 -0.0046496 0 
0.00262128 -0.00319062 0 
0.00372797 -0.00335563 0 
0.00450052 -0.00425206 0 
0.00316331 -0.00401465 0 
0.0027759 0.00244796 0 
0.00439444 0.00378309 0 
0.0050539 0.00283408 0 
0.0031361 0.00195837 0 
0.00353087 0.00309838 0 
0.00479138 0.00335889 0 
0.00403215 0.00241724 0 
0.00299321 0.002235 0 
-0.00315499 0.00288924 0 
-0.00356941 0.00240186 0 
-0.00558269 0.00324297 0 
-0.00485194 0.00413836 0 
-0.00340504 0.00267937 0 
-0.00451173 0.00284438 0 
-0.00528428 0.00374082 0 
-0.00394707 0.0035034 0 
0.00115022 0.0036368 0 
0.00155405 0.00569865 0 
0.00261478 0.00523987 0 
0.00169018 0.00334511 0 
0.00136034 0.00461275 0 
0.00211402 0.00554673 0 
0.00212489 0.00424493 0 
0.00144013 0.0035361 0 
-0.00208396 0.00353517 0 
-0.00296376 0.00545349 0 
-0.00187085 0.00582679 0 
-0.00144402 0.00351626 0 
-0.00251621 0.00443848 0 
-0.00244738 0.00571972 0 
-0.00169315 0.00460321 0 
-0.00177289 0.00357141 0 
-0.00193398 -0.00414804 0 
-0.00233781 -0.0062099 0 
-0.00339854 -0.00575111 0 
-0.00247394 -0.00385636 0 
-0.0021441 -0.00512399 0 
-0.00289778 -0.00605797 0 
-0.00290865 -0.00475618 0 
-0.00222389 -0.00404734 0 
0.0013002 -0.00404642 0 
0.00218 -0.00596474 0 
0.00108709 -0.00633804 0 
0.000660261 -0.00402751 0 
0.00173245 -0.00494972 0 
0.00166362 -0.00623096 0 
0.00090939 -0.00511446 0 
0.000989129 -0.00408265 0 
0.00115022 0.0036368 0 
0.00053156 0.0038348 0 
0.000427273 0.00595355 0 
0.00155405 0.00569865 0 
0.000854194 0.00378941 0 
0.000518576 0.00484647 0 
0.00100562 0.00590814 0 
0.00136034 0.00461275 0 
-0.00193398 -0.00414804 0 
-0.00131532 -0.00434605 0 
-0.00121103 -0.00646479 0 
-0.00233781 -0.0062099 0 
-0.00163795 -0.00430066 0 
-0.00130234 -0.00535771 0 
-0.00178938 -0.00641939 0 
-0.0021441 -0.00512399 0 
-0.000113238 0.00392731 0 
-0.000721701 0.00375061 0 
-0.00187085 0.00582679 0 
-0.000727364 0.00599647 0 
-0.000429387 0.00389038 0 
-0.00119716 0.0047872 0 
-0.00131446 0.00599555 0 
-0.00035362 0.00493392 0 
-0.000670523 -0.00443856 0 
-6.20594e-05 -0.00426186 0 
0.00108709 -0.00633804 0 
-5.63959e-05 -0.00650771 0 
-0.000354373 -0.00440163 0 
0.0004134 -0.00529845 0 
0.000530703 -0.00650679 0 
-0.00043014 -0.00544517 0 
0.0027759 0.00244796 0 
0.00245272 0.00272189 0 
0.00357054 0.00459312 0 
0.00439444 0.00378309 0 
0.00262977 0.00260425 0 
0.00300787 0.00359699 0 
0.00404 0.00425141 0 
0.00353087 0.00309838 0 
-0.00315499 0.00288924 0 
-0.00485194 0.00413836 0 
-0.00396915 0.00488371 0 
-0.00263745 0.00326902 0 
-0.00394707 0.0035034 0 
-0.00446657 0.00457212 0 
-0.00326447 0.00403931 0 
-0.00293114 0.00312047 0 
-0.00355966 -0.0029592 0 
-0.00323648 -0.00323313 0 
-0.0043543 -0.00510437 0 
-0.0051782 -0.00429434 0 
-0.00341353 -0.0031155 0 
-0.00379163 -0.00410824 0 
-0.00482376 -0.00476265 0 
-0.00431463 -0.00360963 0 
0.00237123 -0.00340048 0 
0.00406818 -0.0046496 0 
0.00318539 -0.00539495 0 
0.00185369 -0.00378027 0 
0.00316331 -0.00401465 0 
0.00368281 -0.00508337 0 